<?xml version="1.0" encoding="ISO-8859-1"?>
<modeling>
 <generator>
  <i name="program" type="string">vasp </i>
  <i name="version" type="string">5.4.4.18Apr17-6-g9f103f2a35  </i>
  <i name="subversion" type="string">(build Apr 21 2021 12:29:50) complex            parallel </i>
  <i name="platform" type="string">LinuxIFC </i>
  <i name="date" type="string">2021 05 27 </i>
  <i name="time" type="string">11:47:54 </i>
 </generator>
 <incar>
  <i type="string" name="SYSTEM">ge_ran</i>
  <i type="int" name="ISTART">     0</i>
  <i type="string" name="PREC">a      ! determines the energy</i>
  <i type="int" name="IALGO">    38</i>
  <i type="int" name="ISPIN">     1</i>
  <i type="int" name="ICHARG">     2</i>
  <i type="int" name="NELM">   200</i>
  <i name="EDIFF">      0.00000001</i>
  <i type="int" name="ISIF">     3</i>
  <i type="int" name="ISYM">     2</i>
  <i name="ENCUT">    400.00000000</i>
  <i type="int" name="ISMEAR">     0</i>
  <i name="SIGMA">      0.05000000</i>
  <i name="KSPACING">      0.14000000</i>
  <i type="logical" name="KGAMMA"> T  </i>
  <i type="logical" name="LWAVE"> F  </i>
  <i type="logical" name="LCHARG"> F  </i>
  <v type="int" name="KPOINT_BSE">    -1     0     0     0</v>
  <i type="int" name="NELM">   200</i>
  <i type="string" name="GGA">        PE      ! 91:Perdew-Wang91 | PE:</i>
  <i type="logical" name="LEPSILON"> T  </i>
 </incar>
 <structure name="primitive_cell" >
  <crystal>
   <varray name="basis" >
    <v>       3.23137074       0.00000000       0.00000000 </v>
    <v>      -1.61568537       2.79844931       0.00000000 </v>
    <v>       0.00000000       0.00000000       5.25451983 </v>
   </varray>
   <i name="volume">     47.51571488 </i>
   <varray name="rec_basis" >
    <v>       0.30946619       0.17867038       0.00000000 </v>
    <v>       0.00000000       0.35734076       0.00000000 </v>
    <v>       0.00000000       0.00000000       0.19031235 </v>
   </varray>
  </crystal>
  <varray name="positions" >
   <v>       0.33333300      -0.33333300      -0.00104000 </v>
   <v>      -0.33333300       0.33333300      -0.12396000 </v>
   <v>       0.33333300      -0.33333300       0.37604000 </v>
   <v>      -0.33333300       0.33333300       0.49896000 </v>
  </varray>
 </structure>
 <varray name="primitive_index" >
  <v type="int" >        1 </v>
  <v type="int" >        4 </v>
  <v type="int" >        3 </v>
  <v type="int" >        2 </v>
 </varray>
 <kpoints>
  <generation param="Gamma">
   <v type="int" name="divisions">      17       17        9 </v>
   <v name="usershift">      0.00000000       0.00000000       0.00000000 </v>
   <v name="genvec1">      0.05882353       0.00000000       0.00000000 </v>
   <v name="genvec2">      0.00000000       0.05882353       0.00000000 </v>
   <v name="genvec3">      0.00000000       0.00000000       0.11111111 </v>
   <v name="shift">      0.00000000       0.00000000       0.00000000 </v>
  </generation>
  <varray name="kpointlist" >
   <v>       0.00000000       0.00000000       0.00000000 </v>
   <v>       0.05882353       0.00000000       0.00000000 </v>
   <v>       0.11764706       0.00000000       0.00000000 </v>
   <v>       0.17647059       0.00000000       0.00000000 </v>
   <v>       0.23529412       0.00000000       0.00000000 </v>
   <v>       0.29411765      -0.00000000       0.00000000 </v>
   <v>       0.35294118       0.00000000       0.00000000 </v>
   <v>       0.41176471       0.00000000       0.00000000 </v>
   <v>       0.47058824       0.00000000       0.00000000 </v>
   <v>       0.05882353       0.05882353       0.00000000 </v>
   <v>       0.11764706       0.05882353       0.00000000 </v>
   <v>       0.17647059       0.05882353       0.00000000 </v>
   <v>       0.23529412       0.05882353       0.00000000 </v>
   <v>       0.29411765       0.05882353       0.00000000 </v>
   <v>       0.35294118       0.05882353       0.00000000 </v>
   <v>       0.41176471       0.05882353       0.00000000 </v>
   <v>       0.47058824       0.05882353       0.00000000 </v>
   <v>       0.11764706       0.11764706       0.00000000 </v>
   <v>       0.17647059       0.11764706       0.00000000 </v>
   <v>       0.23529412       0.11764706       0.00000000 </v>
   <v>       0.29411765       0.11764706       0.00000000 </v>
   <v>       0.35294118       0.11764706       0.00000000 </v>
   <v>       0.41176471       0.11764706       0.00000000 </v>
   <v>       0.17647059       0.17647059       0.00000000 </v>
   <v>       0.23529412       0.17647059       0.00000000 </v>
   <v>       0.29411765       0.17647059       0.00000000 </v>
   <v>       0.35294118       0.17647059       0.00000000 </v>
   <v>       0.41176471       0.17647059       0.00000000 </v>
   <v>       0.23529412       0.23529412       0.00000000 </v>
   <v>       0.29411765       0.23529412       0.00000000 </v>
   <v>       0.35294118       0.23529412       0.00000000 </v>
   <v>       0.29411765       0.29411765       0.00000000 </v>
   <v>       0.35294118       0.29411765       0.00000000 </v>
   <v>       0.00000000       0.00000000       0.11111111 </v>
   <v>       0.05882353       0.00000000       0.11111111 </v>
   <v>       0.11764706       0.00000000       0.11111111 </v>
   <v>       0.17647059       0.00000000       0.11111111 </v>
   <v>       0.23529412       0.00000000       0.11111111 </v>
   <v>       0.29411765      -0.00000000       0.11111111 </v>
   <v>       0.35294118       0.00000000       0.11111111 </v>
   <v>       0.41176471       0.00000000       0.11111111 </v>
   <v>       0.47058824       0.00000000       0.11111111 </v>
   <v>       0.05882353       0.05882353       0.11111111 </v>
   <v>       0.11764706       0.05882353       0.11111111 </v>
   <v>       0.17647059       0.05882353       0.11111111 </v>
   <v>       0.23529412       0.05882353       0.11111111 </v>
   <v>       0.29411765       0.05882353       0.11111111 </v>
   <v>       0.35294118       0.05882353       0.11111111 </v>
   <v>       0.41176471       0.05882353       0.11111111 </v>
   <v>       0.47058824       0.05882353       0.11111111 </v>
   <v>       0.11764706       0.11764706       0.11111111 </v>
   <v>       0.17647059       0.11764706       0.11111111 </v>
   <v>       0.23529412       0.11764706       0.11111111 </v>
   <v>       0.29411765       0.11764706       0.11111111 </v>
   <v>       0.35294118       0.11764706       0.11111111 </v>
   <v>       0.41176471       0.11764706       0.11111111 </v>
   <v>       0.17647059       0.17647059       0.11111111 </v>
   <v>       0.23529412       0.17647059       0.11111111 </v>
   <v>       0.29411765       0.17647059       0.11111111 </v>
   <v>       0.35294118       0.17647059       0.11111111 </v>
   <v>       0.41176471       0.17647059       0.11111111 </v>
   <v>       0.23529412       0.23529412       0.11111111 </v>
   <v>       0.29411765       0.23529412       0.11111111 </v>
   <v>       0.35294118       0.23529412       0.11111111 </v>
   <v>       0.29411765       0.29411765       0.11111111 </v>
   <v>       0.35294118       0.29411765       0.11111111 </v>
   <v>       0.00000000       0.00000000       0.22222222 </v>
   <v>       0.05882353       0.00000000       0.22222222 </v>
   <v>       0.11764706       0.00000000       0.22222222 </v>
   <v>       0.17647059       0.00000000       0.22222222 </v>
   <v>       0.23529412       0.00000000       0.22222222 </v>
   <v>       0.29411765      -0.00000000       0.22222222 </v>
   <v>       0.35294118       0.00000000       0.22222222 </v>
   <v>       0.41176471       0.00000000       0.22222222 </v>
   <v>       0.47058824       0.00000000       0.22222222 </v>
   <v>       0.05882353       0.05882353       0.22222222 </v>
   <v>       0.11764706       0.05882353       0.22222222 </v>
   <v>       0.17647059       0.05882353       0.22222222 </v>
   <v>       0.23529412       0.05882353       0.22222222 </v>
   <v>       0.29411765       0.05882353       0.22222222 </v>
   <v>       0.35294118       0.05882353       0.22222222 </v>
   <v>       0.41176471       0.05882353       0.22222222 </v>
   <v>       0.47058824       0.05882353       0.22222222 </v>
   <v>       0.11764706       0.11764706       0.22222222 </v>
   <v>       0.17647059       0.11764706       0.22222222 </v>
   <v>       0.23529412       0.11764706       0.22222222 </v>
   <v>       0.29411765       0.11764706       0.22222222 </v>
   <v>       0.35294118       0.11764706       0.22222222 </v>
   <v>       0.41176471       0.11764706       0.22222222 </v>
   <v>       0.17647059       0.17647059       0.22222222 </v>
   <v>       0.23529412       0.17647059       0.22222222 </v>
   <v>       0.29411765       0.17647059       0.22222222 </v>
   <v>       0.35294118       0.17647059       0.22222222 </v>
   <v>       0.41176471       0.17647059       0.22222222 </v>
   <v>       0.23529412       0.23529412       0.22222222 </v>
   <v>       0.29411765       0.23529412       0.22222222 </v>
   <v>       0.35294118       0.23529412       0.22222222 </v>
   <v>       0.29411765       0.29411765       0.22222222 </v>
   <v>       0.35294118       0.29411765       0.22222222 </v>
   <v>       0.00000000       0.00000000       0.33333333 </v>
   <v>       0.05882353       0.00000000       0.33333333 </v>
   <v>       0.11764706       0.00000000       0.33333333 </v>
   <v>       0.17647059       0.00000000       0.33333333 </v>
   <v>       0.23529412       0.00000000       0.33333333 </v>
   <v>       0.29411765      -0.00000000       0.33333333 </v>
   <v>       0.35294118       0.00000000       0.33333333 </v>
   <v>       0.41176471       0.00000000       0.33333333 </v>
   <v>       0.47058824       0.00000000       0.33333333 </v>
   <v>       0.05882353       0.05882353       0.33333333 </v>
   <v>       0.11764706       0.05882353       0.33333333 </v>
   <v>       0.17647059       0.05882353       0.33333333 </v>
   <v>       0.23529412       0.05882353       0.33333333 </v>
   <v>       0.29411765       0.05882353       0.33333333 </v>
   <v>       0.35294118       0.05882353       0.33333333 </v>
   <v>       0.41176471       0.05882353       0.33333333 </v>
   <v>       0.47058824       0.05882353       0.33333333 </v>
   <v>       0.11764706       0.11764706       0.33333333 </v>
   <v>       0.17647059       0.11764706       0.33333333 </v>
   <v>       0.23529412       0.11764706       0.33333333 </v>
   <v>       0.29411765       0.11764706       0.33333333 </v>
   <v>       0.35294118       0.11764706       0.33333333 </v>
   <v>       0.41176471       0.11764706       0.33333333 </v>
   <v>       0.17647059       0.17647059       0.33333333 </v>
   <v>       0.23529412       0.17647059       0.33333333 </v>
   <v>       0.29411765       0.17647059       0.33333333 </v>
   <v>       0.35294118       0.17647059       0.33333333 </v>
   <v>       0.41176471       0.17647059       0.33333333 </v>
   <v>       0.23529412       0.23529412       0.33333333 </v>
   <v>       0.29411765       0.23529412       0.33333333 </v>
   <v>       0.35294118       0.23529412       0.33333333 </v>
   <v>       0.29411765       0.29411765       0.33333333 </v>
   <v>       0.35294118       0.29411765       0.33333333 </v>
   <v>       0.00000000       0.00000000       0.44444444 </v>
   <v>       0.05882353       0.00000000       0.44444444 </v>
   <v>       0.11764706       0.00000000       0.44444444 </v>
   <v>       0.17647059       0.00000000       0.44444444 </v>
   <v>       0.23529412       0.00000000       0.44444444 </v>
   <v>       0.29411765      -0.00000000       0.44444444 </v>
   <v>       0.35294118       0.00000000       0.44444444 </v>
   <v>       0.41176471       0.00000000       0.44444444 </v>
   <v>       0.47058824       0.00000000       0.44444444 </v>
   <v>       0.05882353       0.05882353       0.44444444 </v>
   <v>       0.11764706       0.05882353       0.44444444 </v>
   <v>       0.17647059       0.05882353       0.44444444 </v>
   <v>       0.23529412       0.05882353       0.44444444 </v>
   <v>       0.29411765       0.05882353       0.44444444 </v>
   <v>       0.35294118       0.05882353       0.44444444 </v>
   <v>       0.41176471       0.05882353       0.44444444 </v>
   <v>       0.47058824       0.05882353       0.44444444 </v>
   <v>       0.11764706       0.11764706       0.44444444 </v>
   <v>       0.17647059       0.11764706       0.44444444 </v>
   <v>       0.23529412       0.11764706       0.44444444 </v>
   <v>       0.29411765       0.11764706       0.44444444 </v>
   <v>       0.35294118       0.11764706       0.44444444 </v>
   <v>       0.41176471       0.11764706       0.44444444 </v>
   <v>       0.17647059       0.17647059       0.44444444 </v>
   <v>       0.23529412       0.17647059       0.44444444 </v>
   <v>       0.29411765       0.17647059       0.44444444 </v>
   <v>       0.35294118       0.17647059       0.44444444 </v>
   <v>       0.41176471       0.17647059       0.44444444 </v>
   <v>       0.23529412       0.23529412       0.44444444 </v>
   <v>       0.29411765       0.23529412       0.44444444 </v>
   <v>       0.35294118       0.23529412       0.44444444 </v>
   <v>       0.29411765       0.29411765       0.44444444 </v>
   <v>       0.35294118       0.29411765       0.44444444 </v>
  </varray>
  <varray name="weights" >
   <v>       0.00038447 </v>
   <v>       0.00230681 </v>
   <v>       0.00230681 </v>
   <v>       0.00230681 </v>
   <v>       0.00230681 </v>
   <v>       0.00230681 </v>
   <v>       0.00230681 </v>
   <v>       0.00230681 </v>
   <v>       0.00230681 </v>
   <v>       0.00230681 </v>
   <v>       0.00461361 </v>
   <v>       0.00461361 </v>
   <v>       0.00461361 </v>
   <v>       0.00461361 </v>
   <v>       0.00461361 </v>
   <v>       0.00461361 </v>
   <v>       0.00230681 </v>
   <v>       0.00230681 </v>
   <v>       0.00461361 </v>
   <v>       0.00461361 </v>
   <v>       0.00461361 </v>
   <v>       0.00461361 </v>
   <v>       0.00461361 </v>
   <v>       0.00230681 </v>
   <v>       0.00461361 </v>
   <v>       0.00461361 </v>
   <v>       0.00461361 </v>
   <v>       0.00230681 </v>
   <v>       0.00230681 </v>
   <v>       0.00461361 </v>
   <v>       0.00461361 </v>
   <v>       0.00230681 </v>
   <v>       0.00230681 </v>
   <v>       0.00076894 </v>
   <v>       0.00461361 </v>
   <v>       0.00461361 </v>
   <v>       0.00461361 </v>
   <v>       0.00461361 </v>
   <v>       0.00461361 </v>
   <v>       0.00461361 </v>
   <v>       0.00461361 </v>
   <v>       0.00461361 </v>
   <v>       0.00461361 </v>
   <v>       0.00922722 </v>
   <v>       0.00922722 </v>
   <v>       0.00922722 </v>
   <v>       0.00922722 </v>
   <v>       0.00922722 </v>
   <v>       0.00922722 </v>
   <v>       0.00461361 </v>
   <v>       0.00461361 </v>
   <v>       0.00922722 </v>
   <v>       0.00922722 </v>
   <v>       0.00922722 </v>
   <v>       0.00922722 </v>
   <v>       0.00922722 </v>
   <v>       0.00461361 </v>
   <v>       0.00922722 </v>
   <v>       0.00922722 </v>
   <v>       0.00922722 </v>
   <v>       0.00461361 </v>
   <v>       0.00461361 </v>
   <v>       0.00922722 </v>
   <v>       0.00922722 </v>
   <v>       0.00461361 </v>
   <v>       0.00461361 </v>
   <v>       0.00076894 </v>
   <v>       0.00461361 </v>
   <v>       0.00461361 </v>
   <v>       0.00461361 </v>
   <v>       0.00461361 </v>
   <v>       0.00461361 </v>
   <v>       0.00461361 </v>
   <v>       0.00461361 </v>
   <v>       0.00461361 </v>
   <v>       0.00461361 </v>
   <v>       0.00922722 </v>
   <v>       0.00922722 </v>
   <v>       0.00922722 </v>
   <v>       0.00922722 </v>
   <v>       0.00922722 </v>
   <v>       0.00922722 </v>
   <v>       0.00461361 </v>
   <v>       0.00461361 </v>
   <v>       0.00922722 </v>
   <v>       0.00922722 </v>
   <v>       0.00922722 </v>
   <v>       0.00922722 </v>
   <v>       0.00922722 </v>
   <v>       0.00461361 </v>
   <v>       0.00922722 </v>
   <v>       0.00922722 </v>
   <v>       0.00922722 </v>
   <v>       0.00461361 </v>
   <v>       0.00461361 </v>
   <v>       0.00922722 </v>
   <v>       0.00922722 </v>
   <v>       0.00461361 </v>
   <v>       0.00461361 </v>
   <v>       0.00076894 </v>
   <v>       0.00461361 </v>
   <v>       0.00461361 </v>
   <v>       0.00461361 </v>
   <v>       0.00461361 </v>
   <v>       0.00461361 </v>
   <v>       0.00461361 </v>
   <v>       0.00461361 </v>
   <v>       0.00461361 </v>
   <v>       0.00461361 </v>
   <v>       0.00922722 </v>
   <v>       0.00922722 </v>
   <v>       0.00922722 </v>
   <v>       0.00922722 </v>
   <v>       0.00922722 </v>
   <v>       0.00922722 </v>
   <v>       0.00461361 </v>
   <v>       0.00461361 </v>
   <v>       0.00922722 </v>
   <v>       0.00922722 </v>
   <v>       0.00922722 </v>
   <v>       0.00922722 </v>
   <v>       0.00922722 </v>
   <v>       0.00461361 </v>
   <v>       0.00922722 </v>
   <v>       0.00922722 </v>
   <v>       0.00922722 </v>
   <v>       0.00461361 </v>
   <v>       0.00461361 </v>
   <v>       0.00922722 </v>
   <v>       0.00922722 </v>
   <v>       0.00461361 </v>
   <v>       0.00461361 </v>
   <v>       0.00076894 </v>
   <v>       0.00461361 </v>
   <v>       0.00461361 </v>
   <v>       0.00461361 </v>
   <v>       0.00461361 </v>
   <v>       0.00461361 </v>
   <v>       0.00461361 </v>
   <v>       0.00461361 </v>
   <v>       0.00461361 </v>
   <v>       0.00461361 </v>
   <v>       0.00922722 </v>
   <v>       0.00922722 </v>
   <v>       0.00922722 </v>
   <v>       0.00922722 </v>
   <v>       0.00922722 </v>
   <v>       0.00922722 </v>
   <v>       0.00461361 </v>
   <v>       0.00461361 </v>
   <v>       0.00922722 </v>
   <v>       0.00922722 </v>
   <v>       0.00922722 </v>
   <v>       0.00922722 </v>
   <v>       0.00922722 </v>
   <v>       0.00461361 </v>
   <v>       0.00922722 </v>
   <v>       0.00922722 </v>
   <v>       0.00922722 </v>
   <v>       0.00461361 </v>
   <v>       0.00461361 </v>
   <v>       0.00922722 </v>
   <v>       0.00922722 </v>
   <v>       0.00461361 </v>
   <v>       0.00461361 </v>
  </varray>
 </kpoints>
 <parameters>
  <separator name="general" >
   <i type="string" name="SYSTEM">ge_ran</i>
   <i type="logical" name="LCOMPAT"> F  </i>
  </separator>
  <separator name="electronic" >
   <i type="string" name="PREC">a</i>
   <i name="ENMAX">    400.00000000</i>
   <i name="ENAUG">    627.11200000</i>
   <i name="EDIFF">      0.00000001</i>
   <i type="int" name="IALGO">    38</i>
   <i type="int" name="IWAVPR">    10</i>
   <i type="int" name="NBANDS">    40</i>
   <i name="NELECT">     16.00000000</i>
   <i type="int" name="TURBO">     0</i>
   <i type="int" name="IRESTART">     0</i>
   <i type="int" name="NREBOOT">     0</i>
   <i type="int" name="NMIN">     0</i>
   <i name="EREF">      0.00000000</i>
   <separator name="electronic smearing" >
    <i type="int" name="ISMEAR">     0</i>
    <i name="SIGMA">      0.05000000</i>
    <i name="KSPACING">      0.14000000</i>
    <i type="logical" name="KGAMMA"> T  </i>
   </separator>
   <separator name="electronic projectors" >
    <i type="logical" name="LREAL"> F  </i>
    <v name="ROPT">      0.00000000      0.00000000</v>
    <i type="int" name="LMAXPAW">  -100</i>
    <i type="int" name="LMAXMIX">     2</i>
    <i type="logical" name="NLSPLINE"> F  </i>
   </separator>
   <separator name="electronic startup" >
    <i type="int" name="ISTART">     0</i>
    <i type="int" name="ICHARG">     2</i>
    <i type="int" name="INIWAV">     1</i>
   </separator>
   <separator name="electronic spin" >
    <i type="int" name="ISPIN">     1</i>
    <i type="logical" name="LNONCOLLINEAR"> F  </i>
    <v name="MAGMOM">      1.00000000      1.00000000      1.00000000      1.00000000</v>
    <i name="NUPDOWN">     -1.00000000</i>
    <i type="logical" name="LSORBIT"> F  </i>
    <v name="SAXIS">      0.00000000      0.00000000      1.00000000</v>
    <i type="logical" name="LSPIRAL"> F  </i>
    <v name="QSPIRAL">      0.00000000      0.00000000      0.00000000</v>
    <i type="logical" name="LZEROZ"> F  </i>
   </separator>
   <separator name="electronic exchange-correlation" >
    <i type="logical" name="LASPH"> F  </i>
    <i type="logical" name="LMETAGGA"> F  </i>
   </separator>
   <separator name="electronic convergence" >
    <i type="int" name="NELM">   200</i>
    <i type="int" name="NELMDL">    -5</i>
    <i type="int" name="NELMIN">     2</i>
    <i name="ENINI">    400.00000000</i>
    <separator name="electronic convergence detail" >
     <i type="logical" name="LDIAG"> T  </i>
     <i type="logical" name="LSUBROT"> F  </i>
     <i name="WEIMIN">      0.00000000</i>
     <i name="EBREAK">      0.00000000</i>
     <i name="DEPER">      0.30000000</i>
     <i type="int" name="NRMM">     4</i>
     <i name="TIME">      0.40000000</i>
    </separator>
   </separator>
   <separator name="electronic mixer" >
    <i name="AMIX">      0.40000000</i>
    <i name="BMIX">      1.00000000</i>
    <i name="AMIN">      0.10000000</i>
    <i name="AMIX_MAG">      1.60000000</i>
    <i name="BMIX_MAG">      1.00000000</i>
    <separator name="electronic mixer details" >
     <i type="int" name="IMIX">     4</i>
     <i type="logical" name="MIXFIRST"> F  </i>
     <i type="int" name="MAXMIX">   -45</i>
     <i name="WC">    100.00000000</i>
     <i type="int" name="INIMIX">     1</i>
     <i type="int" name="MIXPRE">     1</i>
     <i type="int" name="MREMOVE">     5</i>
    </separator>
   </separator>
   <separator name="electronic dipolcorrection" >
    <i type="logical" name="LDIPOL"> F  </i>
    <i type="logical" name="LMONO"> F  </i>
    <i type="int" name="IDIPOL">     0</i>
    <i name="EPSILON">      1.00000000</i>
    <v name="DIPOL">   -100.00000000   -100.00000000   -100.00000000</v>
    <i name="EFIELD">      0.00000000</i>
   </separator>
  </separator>
  <separator name="grids" >
   <i type="int" name="NGX">    24</i>
   <i type="int" name="NGY">    24</i>
   <i type="int" name="NGZ">    36</i>
   <i type="int" name="NGXF">    48</i>
   <i type="int" name="NGYF">    48</i>
   <i type="int" name="NGZF">    72</i>
   <i type="logical" name="ADDGRID"> F  </i>
  </separator>
  <separator name="ionic" >
   <i type="int" name="NSW">     0</i>
   <i type="int" name="IBRION">    -1</i>
   <i type="int" name="MDALGO">     0</i>
   <i type="int" name="ISIF">     3</i>
   <i name="PSTRESS">      0.00000000</i>
   <i name="EDIFFG">      0.00000010</i>
   <i type="int" name="NFREE">     0</i>
   <i name="POTIM">      0.50000000</i>
   <i name="SMASS">     -3.00000000</i>
   <i name="SCALEE">      1.00000000</i>
  </separator>
  <separator name="ionic md" >
   <i name="TEBEG">      0.00010000</i>
   <i name="TEEND">      0.00010000</i>
   <i type="int" name="NBLOCK">     1</i>
   <i type="int" name="KBLOCK">     1</i>
   <i type="int" name="NPACO">   256</i>
   <i name="APACO">     16.00000000</i>
  </separator>
  <separator name="symmetry" >
   <i type="int" name="ISYM">     2</i>
   <i name="SYMPREC">      0.00001000</i>
  </separator>
  <separator name="dos" >
   <i type="int" name="LORBIT">     0</i>
   <v name="RWIGS">     -1.00000000     -1.00000000</v>
   <i type="int" name="NEDOS">   301</i>
   <i name="EMIN">     10.00000000</i>
   <i name="EMAX">    -10.00000000</i>
   <i name="EFERMI">      0.00000000</i>
  </separator>
  <separator name="writing" >
   <i type="int" name="NWRITE">     2</i>
   <i type="logical" name="LWAVE"> F  </i>
   <i type="logical" name="LDOWNSAMPLE"> F  </i>
   <i type="logical" name="LCHARG"> F  </i>
   <i type="logical" name="LPARD"> F  </i>
   <i type="logical" name="LVTOT"> F  </i>
   <i type="logical" name="LVHAR"> F  </i>
   <i type="logical" name="LELF"> F  </i>
   <i type="logical" name="LOPTICS"> F  </i>
   <v name="STM">      0.00000000      0.00000000      0.00000000      0.00000000      0.00000000      0.00000000      0.00000000</v>
  </separator>
  <separator name="performance" >
   <i type="int" name="NPAR">    40</i>
   <i type="int" name="NSIM">     4</i>
   <i type="int" name="NBLK">    -1</i>
   <i type="logical" name="LPLANE"> T  </i>
   <i type="logical" name="LSCALAPACK"> T  </i>
   <i type="logical" name="LSCAAWARE"> T  </i>
   <i type="logical" name="LSCALU"> F  </i>
   <i type="logical" name="LASYNC"> F  </i>
   <i type="logical" name="LORBITALREAL"> F  </i>
  </separator>
  <separator name="miscellaneous" >
   <i type="int" name="IDIOT">     3</i>
   <i type="int" name="ISPECIAL">     0</i>
   <i type="logical" name="LMUSIC"> F  </i>
   <v name="POMASS">     69.72300000     14.00100000</v>
   <v name="DARWINR">      0.00000000      0.00000000</v>
   <v name="DARWINV">      1.00000000      1.00000000</v>
   <i type="logical" name="LCORR"> T  </i>
  </separator>
  <i type="logical" name="GGA_COMPAT"> T  </i>
  <i type="logical" name="LBERRY"> F  </i>
  <i type="int" name="ICORELEVEL">     0</i>
  <i type="logical" name="LDAU"> F  </i>
  <i type="int" name="I_CONSTRAINED_M">     0</i>
  <separator name="electronic exchange-correlation" >
   <i type="string" name="GGA">PE</i>
   <i type="int" name="VOSKOWN">     0</i>
   <i type="logical" name="LHFCALC"> F  </i>
   <i type="string" name="PRECFOCK"></i>
   <i type="logical" name="LSYMGRAD"> F  </i>
   <i type="logical" name="LHFONE"> F  </i>
   <i type="logical" name="LRHFCALC"> F  </i>
   <i type="logical" name="LTHOMAS"> F  </i>
   <i type="logical" name="LMODELHF"> F  </i>
   <i name="ENCUT4O">     -1.00000000</i>
   <i type="int" name="EXXOEP">     0</i>
   <i type="int" name="FOURORBIT">     0</i>
   <i name="AEXX">      0.00000000</i>
   <i name="HFALPHA">      0.00000000</i>
   <i name="MCALPHA">      0.00000000</i>
   <i name="ALDAX">      1.00000000</i>
   <i name="AGGAX">      1.00000000</i>
   <i name="ALDAC">      1.00000000</i>
   <i name="AGGAC">      1.00000000</i>
   <i type="int" name="NKREDX">     1</i>
   <i type="int" name="NKREDY">     1</i>
   <i type="int" name="NKREDZ">     1</i>
   <i type="logical" name="SHIFTRED"> F  </i>
   <i type="logical" name="ODDONLY"> F  </i>
   <i type="logical" name="EVENONLY"> F  </i>
   <i type="int" name="LMAXFOCK">     0</i>
   <i type="int" name="NMAXFOCKAE">     0</i>
   <i type="logical" name="LFOCKAEDFT"> F  </i>
   <i name="HFSCREEN">      0.00000000</i>
   <i name="HFSCREENC">      0.00000000</i>
   <i type="int" name="NBANDSGWLOW">     0</i>
  </separator>
  <separator name="vdW DFT" >
   <i type="logical" name="LUSE_VDW"> F  </i>
   <i name="Zab_VDW">     -0.84910000</i>
   <i name="PARAM1">      0.12340000</i>
   <i name="PARAM2">      1.00000000</i>
   <i name="PARAM3">      0.00000000</i>
  </separator>
  <separator name="model GW" >
   <i type="int" name="MODEL_GW">     0</i>
   <i name="MODEL_EPS0">      7.12735723</i>
   <i name="MODEL_ALPHA">      1.00000000</i>
  </separator>
  <separator name="linear response parameters" >
   <i type="logical" name="LEPSILON"> T  </i>
   <i type="logical" name="LRPA"> F  </i>
   <i type="logical" name="LNABLA"> F  </i>
   <i type="logical" name="LVEL"> F  </i>
   <i type="int" name="KINTER">     0</i>
   <i name="CSHIFT">      0.10000000</i>
   <i name="OMEGAMAX">     -1.00000000</i>
   <i name="DEG_THRESHOLD">      0.00200000</i>
   <i name="RTIME">     -0.10000000</i>
   <i name="WPLASMAI">      0.00000000</i>
   <v name="DFIELD">      0.00000000      0.00000000      0.00000000</v>
   <v name="WPLASMA">      0.00000000      0.00000000      0.00000000      0.00000000      0.00000000      0.00000000      0.00000000      0.00000000      0.00000000</v>
  </separator>
  <separator name="orbital magnetization" >
   <i type="logical" name="NUCIND"> F  </i>
   <v name="MAGPOS">      0.00000000      0.00000000      0.00000000</v>
   <i type="logical" name="LNICSALL"> T  </i>
   <i type="logical" name="ORBITALMAG"> F  </i>
   <i type="logical" name="LMAGBLOCH"> F  </i>
   <i type="logical" name="LCHIMAG"> F  </i>
   <i type="logical" name="LGAUGE"> T  </i>
   <i type="int" name="MAGATOM">     0</i>
   <v name="MAGDIPOL">      0.00000000      0.00000000      0.00000000</v>
   <v name="AVECCONST">      0.00000000      0.00000000      0.00000000</v>
  </separator>
  <separator name="response functions" >
   <i type="logical" name="LADDER"> F  </i>
   <i type="logical" name="LRPAFORCE"> F  </i>
   <i type="logical" name="LFXC"> F  </i>
   <i type="logical" name="LHARTREE"> T  </i>
   <i type="int" name="IBSE">     0</i>
   <v type="int" name="KPOINT">    -1     0     0     0</v>
   <i type="logical" name="LTCTE"> F  </i>
   <i type="logical" name="LTETE"> F  </i>
   <i type="logical" name="LTRIPLET"> F  </i>
   <i type="logical" name="LFXCEPS"> F  </i>
   <i type="logical" name="LFXHEG"> F  </i>
   <i type="int" name="NATURALO">     2</i>
   <i type="logical" name="L2ORDER"> F  </i>
   <i type="logical" name="LMP2LT"> F  </i>
   <i type="logical" name="LUSEW"> F  </i>
   <i name="ENCUTGW">     -2.00000000</i>
   <i name="ENCUTGWSOFT">     -2.00000000</i>
   <i name="ENCUTLF">     -1.00000000</i>
   <i type="int" name="LMAXMP2">    -1</i>
   <i name="SCISSOR">      0.00000000</i>
   <i type="int" name="NOMEGA">     0</i>
   <i type="int" name="NOMEGAR">     0</i>
   <i type="int" name="NBANDSGW">    -1</i>
   <i type="int" name="NBANDSO">    -1</i>
   <i type="int" name="NBANDSV">    -1</i>
   <i type="int" name="NELM">   200</i>
   <i type="int" name="NELMHF">     1</i>
   <i type="int" name="DIM">     3</i>
   <i type="int" name="ANTIRES">     0</i>
   <i name="OMEGAMAX">    -30.00000000</i>
   <i name="OMEGAMIN">    -30.00000000</i>
   <i name="OMEGATL">   -200.00000000</i>
   <i type="int" name="OMEGAGRID">   140</i>
   <i name="CSHIFT">     -0.10000000</i>
   <i type="logical" name="SELFENERGY"> F  </i>
   <i type="logical" name="LSPECTRAL"> F  </i>
   <i type="logical" name="LSPECTRALGW"> F  </i>
   <i type="logical" name="LSINGLES"> F  </i>
   <i type="logical" name="LFERMIGW"> F  </i>
   <i type="logical" name="ODDONLYGW"> F  </i>
   <i type="logical" name="EVENONLYGW"> F  </i>
   <i type="int" name="NKREDLFX">     1</i>
   <i type="int" name="NKREDLFY">     1</i>
   <i type="int" name="NKREDLFZ">     1</i>
   <i type="int" name="MAXMEM">  2800</i>
   <i type="int" name="TELESCOPE">     0</i>
   <i type="int" name="TAUPAR">     1</i>
   <i type="int" name="OMEGAPAR">    -1</i>
   <i name="LAMBDA">      1.00000000</i>
  </separator>
  <separator name="External order field" >
   <i name="OFIELD_KAPPA">      0.00000000</i>
   <v name="OFIELD_K">      0.00000000      0.00000000      0.00000000</v>
   <i name="OFIELD_Q6_NEAR">      0.00000000</i>
   <i name="OFIELD_Q6_FAR">      0.00000000</i>
   <i name="OFIELD_A">      0.00000000</i>
  </separator>
 </parameters>
 <atominfo>
  <atoms>       4 </atoms>
  <types>       2 </types>
  <array name="atoms" >
   <dimension dim="1">ion</dimension>
   <field type="string">element</field>
   <field type="int">atomtype</field>
   <set>
    <rc><c>Ga</c><c>   1</c></rc>
    <rc><c>Ga</c><c>   1</c></rc>
    <rc><c>N </c><c>   2</c></rc>
    <rc><c>N </c><c>   2</c></rc>
   </set>
  </array>
  <array name="atomtypes" >
   <dimension dim="1">type</dimension>
   <field type="int">atomspertype</field>
   <field type="string">element</field>
   <field>mass</field>
   <field>valence</field>
   <field type="string">pseudopotential</field>
   <set>
    <rc><c>   2</c><c>Ga</c><c>     69.72300000</c><c>      3.00000000</c><c>  PAW_PBE Ga 08Apr2002                  </c></rc>
    <rc><c>   2</c><c>N </c><c>     14.00100000</c><c>      5.00000000</c><c>  PAW_PBE N 08Apr2002                   </c></rc>
   </set>
  </array>
 </atominfo>
 <structure name="initialpos" >
  <crystal>
   <varray name="basis" >
    <v>       3.23137074       0.00000000       0.00000000 </v>
    <v>      -1.61568537       2.79844931       0.00000000 </v>
    <v>       0.00000000       0.00000000       5.25451983 </v>
   </varray>
   <i name="volume">     47.51571488 </i>
   <varray name="rec_basis" >
    <v>       0.30946619       0.17867038       0.00000000 </v>
    <v>       0.00000000       0.35734076       0.00000000 </v>
    <v>       0.00000000       0.00000000       0.19031235 </v>
   </varray>
  </crystal>
  <varray name="positions" >
   <v>       0.33333300       0.66666700       0.99896000 </v>
   <v>       0.66666700       0.33333300       0.49896000 </v>
   <v>       0.33333300       0.66666700       0.37604000 </v>
   <v>       0.66666700       0.33333300       0.87604000 </v>
  </varray>
 </structure>
 <calculation>
  <scstep>
   <time name="dav">    2.08    2.08</time>
   <time name="total">    2.09    2.10</time>
   <energy>
    <i name="alphaZ">     54.55668329 </i>
    <i name="ewald">   -567.02136374 </i>
    <i name="hartreedc">   -126.19890880 </i>
    <i name="XCdc">      0.86056564 </i>
    <i name="pawpsdc">    533.99698264 </i>
    <i name="pawaedc">   -488.98860516 </i>
    <i name="eentropy">     -0.00000000 </i>
    <i name="bandstr">    -64.15223973 </i>
    <i name="atom">    646.68742485 </i>
    <i name="e_fr_energy">    -10.25946101 </i>
    <i name="e_wo_entrp">    -10.25946101 </i>
    <i name="e_0_energy">    -10.25946101 </i>
   </energy>
  </scstep>
  <scstep>
   <time name="dav">    3.61    3.62</time>
   <time name="total">    3.61    3.62</time>
   <energy>
    <i name="e_fr_energy">    -28.31876862 </i>
    <i name="e_wo_entrp">    -28.31876862 </i>
    <i name="e_0_energy">    -28.31876862 </i>
   </energy>
  </scstep>
  <scstep>
   <time name="dav">    1.95    1.96</time>
   <time name="total">    1.95    1.96</time>
   <energy>
    <i name="e_fr_energy">    -28.34874427 </i>
    <i name="e_wo_entrp">    -28.34874427 </i>
    <i name="e_0_energy">    -28.34874427 </i>
   </energy>
  </scstep>
  <scstep>
   <time name="dav">    6.00    6.02</time>
   <time name="total">    6.00    6.02</time>
   <energy>
    <i name="e_fr_energy">    -28.34875629 </i>
    <i name="e_wo_entrp">    -28.34875629 </i>
    <i name="e_0_energy">    -28.34875629 </i>
   </energy>
  </scstep>
  <scstep>
   <time name="dav">    1.95    1.96</time>
   <time name="total">    2.00    2.00</time>
   <energy>
    <i name="e_fr_energy">    -28.34875629 </i>
    <i name="e_wo_entrp">    -28.34875629 </i>
    <i name="e_0_energy">    -28.34875629 </i>
   </energy>
  </scstep>
  <scstep>
   <time name="dav">    3.42    3.43</time>
   <time name="total">    3.47    3.49</time>
   <energy>
    <i name="e_fr_energy">    -24.48585486 </i>
    <i name="e_wo_entrp">    -24.48585486 </i>
    <i name="e_0_energy">    -24.48585486 </i>
   </energy>
  </scstep>
  <scstep>
   <time name="dav">    2.79    2.79</time>
   <time name="total">    2.84    2.85</time>
   <energy>
    <i name="e_fr_energy">    -24.39048672 </i>
    <i name="e_wo_entrp">    -24.39048672 </i>
    <i name="e_0_energy">    -24.39048672 </i>
   </energy>
  </scstep>
  <scstep>
   <time name="dav">    4.56    4.57</time>
   <time name="total">    4.61    4.62</time>
   <energy>
    <i name="e_fr_energy">    -24.33846772 </i>
    <i name="e_wo_entrp">    -24.33846772 </i>
    <i name="e_0_energy">    -24.33846772 </i>
   </energy>
  </scstep>
  <scstep>
   <time name="dav">    2.29    2.30</time>
   <time name="total">    2.34    2.35</time>
   <energy>
    <i name="e_fr_energy">    -24.33854486 </i>
    <i name="e_wo_entrp">    -24.33854486 </i>
    <i name="e_0_energy">    -24.33854486 </i>
   </energy>
  </scstep>
  <scstep>
   <time name="dav">    3.84    3.85</time>
   <time name="total">    3.89    3.90</time>
   <energy>
    <i name="e_fr_energy">    -24.33909221 </i>
    <i name="e_wo_entrp">    -24.33909221 </i>
    <i name="e_0_energy">    -24.33909221 </i>
   </energy>
  </scstep>
  <scstep>
   <time name="dav">    4.30    4.31</time>
   <time name="total">    4.35    4.37</time>
   <energy>
    <i name="e_fr_energy">    -24.33910006 </i>
    <i name="e_wo_entrp">    -24.33910006 </i>
    <i name="e_0_energy">    -24.33910006 </i>
   </energy>
  </scstep>
  <scstep>
   <time name="dav">    3.75    3.76</time>
   <time name="total">    3.80    3.81</time>
   <energy>
    <i name="e_fr_energy">    -24.33910081 </i>
    <i name="e_wo_entrp">    -24.33910081 </i>
    <i name="e_0_energy">    -24.33910081 </i>
   </energy>
  </scstep>
  <scstep>
   <time name="dav">    3.36    3.37</time>
   <time name="total">    3.41    3.42</time>
   <energy>
    <i name="e_fr_energy">    -24.33910083 </i>
    <i name="e_wo_entrp">    -24.33910083 </i>
    <i name="e_0_energy">    -24.33910083 </i>
   </energy>
  </scstep>
  <scstep>
   <time name="dav">    4.34    4.35</time>
   <time name="total">    4.39    4.40</time>
   <energy>
    <i name="e_fr_energy">    -24.33910075 </i>
    <i name="e_wo_entrp">    -24.33910075 </i>
    <i name="e_0_energy">    -24.33910075 </i>
   </energy>
  </scstep>
  <scstep>
   <time name="dav">    1.39    1.39</time>
   <time name="total">    1.39    1.40</time>
   <energy>
    <i name="alphaZ">     54.55668329 </i>
    <i name="ewald">   -567.02136374 </i>
    <i name="hartreedc">   -157.70616246 </i>
    <i name="XCdc">      3.77133638 </i>
    <i name="pawpsdc">   1669.46552632 </i>
    <i name="pawaedc">  -1625.81006807 </i>
    <i name="eentropy">     -0.00000000 </i>
    <i name="bandstr">    -48.28247733 </i>
    <i name="atom">    646.68742485 </i>
    <i name="e_fr_energy">    -24.33910076 </i>
    <i name="e_wo_entrp">    -24.33910076 </i>
    <i name="e_0_energy">    -24.33910076 </i>
   </energy>
  </scstep>
  <structure>
   <crystal>
    <varray name="basis" >
     <v>       3.23137074       0.00000000       0.00000000 </v>
     <v>      -1.61568537       2.79844931       0.00000000 </v>
     <v>       0.00000000       0.00000000       5.25451983 </v>
    </varray>
    <i name="volume">     47.51571488 </i>
    <varray name="rec_basis" >
     <v>       0.30946619       0.17867038       0.00000000 </v>
     <v>       0.00000000       0.35734076       0.00000000 </v>
     <v>       0.00000000       0.00000000       0.19031235 </v>
    </varray>
   </crystal>
   <varray name="positions" >
    <v>       0.33333300       0.66666700       0.99896000 </v>
    <v>       0.66666700       0.33333300       0.49896000 </v>
    <v>       0.33333300       0.66666700       0.37604000 </v>
    <v>       0.66666700       0.33333300       0.87604000 </v>
   </varray>
  </structure>
  <varray name="forces" >
   <v>      -0.00000000       0.00000000      -0.00000508 </v>
   <v>      -0.00000000      -0.00000000      -0.00000508 </v>
   <v>      -0.00000000       0.00000000       0.00000508 </v>
   <v>       0.00000000      -0.00000000       0.00000508 </v>
  </varray>
  <varray name="stress" >
   <v>       0.00030682       0.00000000      -0.00000000 </v>
   <v>       0.00000000       0.00030682      -0.00000000 </v>
   <v>       0.00000000      -0.00000000      -0.00001490 </v>
  </varray>
  <energy>
   <i name="e_fr_energy">    -24.33910076 </i>
   <i name="e_wo_entrp">    -24.33910076 </i>
   <i name="e_0_energy">     -0.00000000 </i>
  </energy>
  <scstep>
   <time name="total">    0.77    1.20</time>
   <energy>
    <i name="e_fr_energy">    -66.70490725 </i>
    <i name="e_wo_entrp">    -66.70490725 </i>
    <i name="e_0_energy">    -66.70490725 </i>
   </energy>
  </scstep>
  <scstep>
   <time name="total">    0.75    0.76</time>
   <energy>
    <i name="e_fr_energy">    -57.49925124 </i>
    <i name="e_wo_entrp">    -57.49925124 </i>
    <i name="e_0_energy">    -57.49925124 </i>
   </energy>
  </scstep>
  <scstep>
   <time name="total">    0.74    0.74</time>
   <energy>
    <i name="e_fr_energy">    -57.51314162 </i>
    <i name="e_wo_entrp">    -57.51314162 </i>
    <i name="e_0_energy">    -57.51314162 </i>
   </energy>
  </scstep>
  <scstep>
   <time name="total">    0.62    0.62</time>
   <energy>
    <i name="e_fr_energy">    -57.51322312 </i>
    <i name="e_wo_entrp">    -57.51322312 </i>
    <i name="e_0_energy">    -57.51322312 </i>
   </energy>
  </scstep>
  <scstep>
   <time name="total">    0.62    0.62</time>
   <energy>
    <i name="e_fr_energy">    -57.51322103 </i>
    <i name="e_wo_entrp">    -57.51322103 </i>
    <i name="e_0_energy">    -57.51322103 </i>
   </energy>
  </scstep>
  <scstep>
   <time name="total">    0.62    0.62</time>
   <energy>
    <i name="e_fr_energy">    -57.51322085 </i>
    <i name="e_wo_entrp">    -57.51322085 </i>
    <i name="e_0_energy">    -57.51322085 </i>
   </energy>
  </scstep>
  <scstep>
   <time name="total">    0.62    0.62</time>
   <energy>
    <i name="e_fr_energy">    -57.51322084 </i>
    <i name="e_wo_entrp">    -57.51322084 </i>
    <i name="e_0_energy">    -57.51322084 </i>
   </energy>
  </scstep>
  <scstep>
   <time name="total">    0.75    0.75</time>
   <energy>
    <i name="e_fr_energy">    -72.77308737 </i>
    <i name="e_wo_entrp">    -72.77308737 </i>
    <i name="e_0_energy">    -72.77308737 </i>
   </energy>
  </scstep>
  <scstep>
   <time name="total">    0.71    0.71</time>
   <energy>
    <i name="e_fr_energy">    -67.79448328 </i>
    <i name="e_wo_entrp">    -67.79448328 </i>
    <i name="e_0_energy">    -67.79448328 </i>
   </energy>
  </scstep>
  <scstep>
   <time name="total">    0.72    0.73</time>
   <energy>
    <i name="e_fr_energy">    -67.80205452 </i>
    <i name="e_wo_entrp">    -67.80205452 </i>
    <i name="e_0_energy">    -67.80205452 </i>
   </energy>
  </scstep>
  <scstep>
   <time name="total">    0.62    0.62</time>
   <energy>
    <i name="e_fr_energy">    -67.80160117 </i>
    <i name="e_wo_entrp">    -67.80160117 </i>
    <i name="e_0_energy">    -67.80160117 </i>
   </energy>
  </scstep>
  <scstep>
   <time name="total">    0.61    0.62</time>
   <energy>
    <i name="e_fr_energy">    -67.80158237 </i>
    <i name="e_wo_entrp">    -67.80158237 </i>
    <i name="e_0_energy">    -67.80158237 </i>
   </energy>
  </scstep>
  <scstep>
   <time name="total">    0.62    0.62</time>
   <energy>
    <i name="e_fr_energy">    -67.80158142 </i>
    <i name="e_wo_entrp">    -67.80158142 </i>
    <i name="e_0_energy">    -67.80158142 </i>
   </energy>
  </scstep>
  <scstep>
   <time name="total">    0.61    0.62</time>
   <energy>
    <i name="e_fr_energy">    -67.80158142 </i>
    <i name="e_wo_entrp">    -67.80158142 </i>
    <i name="e_0_energy">    -67.80158142 </i>
   </energy>
  </scstep>
  <scstep>
   <time name="total">    0.61    0.62</time>
   <energy>
    <i name="e_fr_energy">    -67.80158142 </i>
    <i name="e_wo_entrp">    -67.80158142 </i>
    <i name="e_0_energy">    -67.80158142 </i>
   </energy>
  </scstep>
  <scstep>
   <time name="total">    0.61    0.62</time>
   <energy>
    <i name="e_fr_energy">    -67.80158142 </i>
    <i name="e_wo_entrp">    -67.80158142 </i>
    <i name="e_0_energy">    -67.80158142 </i>
   </energy>
  </scstep>
  <scstep>
   <time name="total">    0.61    0.62</time>
   <energy>
    <i name="e_fr_energy">    -67.80158142 </i>
    <i name="e_wo_entrp">    -67.80158142 </i>
    <i name="e_0_energy">    -67.80158142 </i>
   </energy>
  </scstep>
  <scstep>
   <time name="total">    0.75    0.75</time>
   <energy>
    <i name="e_fr_energy">    -68.46636122 </i>
    <i name="e_wo_entrp">    -68.46636122 </i>
    <i name="e_0_energy">    -68.46636122 </i>
   </energy>
  </scstep>
  <scstep>
   <time name="total">    0.71    0.71</time>
   <energy>
    <i name="e_fr_energy">    -62.54721629 </i>
    <i name="e_wo_entrp">    -62.54721629 </i>
    <i name="e_0_energy">    -62.54721629 </i>
   </energy>
  </scstep>
  <scstep>
   <time name="total">    0.71    0.71</time>
   <energy>
    <i name="e_fr_energy">    -62.55903635 </i>
    <i name="e_wo_entrp">    -62.55903635 </i>
    <i name="e_0_energy">    -62.55903635 </i>
   </energy>
  </scstep>
  <scstep>
   <time name="total">    0.61    0.61</time>
   <energy>
    <i name="e_fr_energy">    -62.55916286 </i>
    <i name="e_wo_entrp">    -62.55916286 </i>
    <i name="e_0_energy">    -62.55916286 </i>
   </energy>
  </scstep>
  <scstep>
   <time name="total">    0.60    0.60</time>
   <energy>
    <i name="e_fr_energy">    -62.55916259 </i>
    <i name="e_wo_entrp">    -62.55916259 </i>
    <i name="e_0_energy">    -62.55916259 </i>
   </energy>
  </scstep>
  <scstep>
   <time name="total">    0.61    0.61</time>
   <energy>
    <i name="e_fr_energy">    -62.55916259 </i>
    <i name="e_wo_entrp">    -62.55916259 </i>
    <i name="e_0_energy">    -62.55916259 </i>
   </energy>
  </scstep>
  <scstep>
   <time name="total">    0.60    0.60</time>
   <energy>
    <i name="e_fr_energy">    -62.55916259 </i>
    <i name="e_wo_entrp">    -62.55916259 </i>
    <i name="e_0_energy">    -62.55916259 </i>
   </energy>
  </scstep>
  <scstep>
   <time name="total">    0.61    0.61</time>
   <energy>
    <i name="e_fr_energy">    -62.55916259 </i>
    <i name="e_wo_entrp">    -62.55916259 </i>
    <i name="e_0_energy">    -62.55916259 </i>
   </energy>
  </scstep>
  <scstep>
   <time name="total">    0.60    0.61</time>
   <energy>
    <i name="e_fr_energy">    -62.55916259 </i>
    <i name="e_wo_entrp">    -62.55916259 </i>
    <i name="e_0_energy">    -62.55916259 </i>
   </energy>
  </scstep>
  <scstep>
   <time name="total">    0.60    0.61</time>
   <energy>
    <i name="e_fr_energy">    -62.55916259 </i>
    <i name="e_wo_entrp">    -62.55916259 </i>
    <i name="e_0_energy">    -62.55916259 </i>
   </energy>
  </scstep>
  <scstep>
   <time name="total">    0.83    0.84</time>
   <energy>
    <i name="e_fr_energy">     -0.50262201 </i>
    <i name="e_wo_entrp">     -0.50262201 </i>
    <i name="e_0_energy">     -0.50262201 </i>
   </energy>
  </scstep>
  <scstep>
   <time name="total">    0.79    0.79</time>
   <energy>
    <i name="e_fr_energy">     -0.54048528 </i>
    <i name="e_wo_entrp">     -0.54048528 </i>
    <i name="e_0_energy">     -0.54048528 </i>
   </energy>
  </scstep>
  <scstep>
   <time name="total">    0.79    0.80</time>
   <energy>
    <i name="e_fr_energy">     -0.54049458 </i>
    <i name="e_wo_entrp">     -0.54049458 </i>
    <i name="e_0_energy">     -0.54049458 </i>
   </energy>
  </scstep>
  <scstep>
   <time name="total">    0.80    0.80</time>
   <energy>
    <i name="e_fr_energy">     -0.54049459 </i>
    <i name="e_wo_entrp">     -0.54049459 </i>
    <i name="e_0_energy">     -0.54049459 </i>
   </energy>
  </scstep>
  <scstep>
   <time name="total">    0.83    0.84</time>
   <energy>
    <i name="e_fr_energy">     -0.70822613 </i>
    <i name="e_wo_entrp">     -0.70822613 </i>
    <i name="e_0_energy">     -0.70822613 </i>
   </energy>
  </scstep>
  <scstep>
   <time name="total">    0.79    0.79</time>
   <energy>
    <i name="e_fr_energy">     -0.75750717 </i>
    <i name="e_wo_entrp">     -0.75750717 </i>
    <i name="e_0_energy">     -0.75750717 </i>
   </energy>
  </scstep>
  <scstep>
   <time name="total">    0.80    0.80</time>
   <energy>
    <i name="e_fr_energy">     -0.75751843 </i>
    <i name="e_wo_entrp">     -0.75751843 </i>
    <i name="e_0_energy">     -0.75751843 </i>
   </energy>
  </scstep>
  <scstep>
   <time name="total">    0.81    0.81</time>
   <energy>
    <i name="e_fr_energy">     -0.75751843 </i>
    <i name="e_wo_entrp">     -0.75751843 </i>
    <i name="e_0_energy">     -0.75751843 </i>
   </energy>
  </scstep>
  <scstep>
   <time name="total">    0.83    0.83</time>
   <energy>
    <i name="e_fr_energy">     -0.63100816 </i>
    <i name="e_wo_entrp">     -0.63100816 </i>
    <i name="e_0_energy">     -0.63100816 </i>
   </energy>
  </scstep>
  <scstep>
   <time name="total">    0.78    0.78</time>
   <energy>
    <i name="e_fr_energy">     -0.67034042 </i>
    <i name="e_wo_entrp">     -0.67034042 </i>
    <i name="e_0_energy">     -0.67034042 </i>
   </energy>
  </scstep>
  <scstep>
   <time name="total">    0.80    0.80</time>
   <energy>
    <i name="e_fr_energy">     -0.67034894 </i>
    <i name="e_wo_entrp">     -0.67034894 </i>
    <i name="e_0_energy">     -0.67034894 </i>
   </energy>
  </scstep>
  <scstep>
   <time name="total">    0.80    0.81</time>
   <energy>
    <i name="e_fr_energy">     -0.67034894 </i>
    <i name="e_wo_entrp">     -0.67034894 </i>
    <i name="e_0_energy">     -0.67034894 </i>
   </energy>
  </scstep>
  <varray name="epsilon_rpa" >
   <v>       5.94319435       0.00000000       0.00000000 </v>
   <v>       0.00000000       5.94319501       0.00000000 </v>
   <v>       0.00000000      -0.00000000       6.10575055 </v>
  </varray>
  <kpoints>
   <generation param="Gamma">
    <v type="int" name="divisions">      17       17        9 </v>
    <v name="usershift">      0.00000000       0.00000000       0.00000000 </v>
    <v name="genvec1">      0.05882353       0.00000000       0.00000000 </v>
    <v name="genvec2">      0.00000000       0.05882353       0.00000000 </v>
    <v name="genvec3">      0.00000000       0.00000000       0.11111111 </v>
    <v name="shift">      0.00000000       0.00000000       0.00000000 </v>
   </generation>
   <varray name="kpointlist" >
    <v>       0.00000000       0.00000000       0.00000000 </v>
    <v>       0.05882353       0.00000000       0.00000000 </v>
    <v>       0.11764706       0.00000000       0.00000000 </v>
    <v>       0.17647059       0.00000000       0.00000000 </v>
    <v>       0.23529412       0.00000000       0.00000000 </v>
    <v>       0.29411765      -0.00000000       0.00000000 </v>
    <v>       0.35294118       0.00000000       0.00000000 </v>
    <v>       0.41176471       0.00000000       0.00000000 </v>
    <v>       0.47058824       0.00000000       0.00000000 </v>
    <v>       0.00000000       0.05882353       0.00000000 </v>
    <v>       0.05882353       0.05882353       0.00000000 </v>
    <v>       0.11764706       0.05882353       0.00000000 </v>
    <v>       0.17647059       0.05882353       0.00000000 </v>
    <v>       0.23529412       0.05882353       0.00000000 </v>
    <v>       0.29411765       0.05882353       0.00000000 </v>
    <v>       0.35294118       0.05882353       0.00000000 </v>
    <v>       0.41176471       0.05882353       0.00000000 </v>
    <v>       0.47058824       0.05882353       0.00000000 </v>
    <v>      -0.47058824       0.05882353       0.00000000 </v>
    <v>      -0.41176471       0.05882353       0.00000000 </v>
    <v>      -0.35294118       0.05882353       0.00000000 </v>
    <v>      -0.29411765       0.05882353       0.00000000 </v>
    <v>      -0.23529412       0.05882353       0.00000000 </v>
    <v>      -0.17647059       0.05882353       0.00000000 </v>
    <v>      -0.11764706       0.05882353       0.00000000 </v>
    <v>       0.00000000       0.11764706       0.00000000 </v>
    <v>       0.05882353       0.11764706       0.00000000 </v>
    <v>       0.11764706       0.11764706       0.00000000 </v>
    <v>       0.17647059       0.11764706       0.00000000 </v>
    <v>       0.23529412       0.11764706       0.00000000 </v>
    <v>       0.29411765       0.11764706       0.00000000 </v>
    <v>       0.35294118       0.11764706       0.00000000 </v>
    <v>       0.41176471       0.11764706       0.00000000 </v>
    <v>       0.47058824       0.11764706       0.00000000 </v>
    <v>      -0.47058824       0.11764706       0.00000000 </v>
    <v>      -0.41176471       0.11764706       0.00000000 </v>
    <v>      -0.35294118       0.11764706       0.00000000 </v>
    <v>      -0.29411765       0.11764706       0.00000000 </v>
    <v>      -0.23529412       0.11764706       0.00000000 </v>
    <v>       0.00000000       0.17647059       0.00000000 </v>
    <v>       0.05882353       0.17647059       0.00000000 </v>
    <v>       0.11764706       0.17647059       0.00000000 </v>
    <v>       0.17647059       0.17647059       0.00000000 </v>
    <v>       0.23529412       0.17647059       0.00000000 </v>
    <v>       0.29411765       0.17647059       0.00000000 </v>
    <v>       0.35294118       0.17647059       0.00000000 </v>
    <v>       0.41176471       0.17647059       0.00000000 </v>
    <v>       0.47058824       0.17647059       0.00000000 </v>
    <v>      -0.47058824       0.17647059       0.00000000 </v>
    <v>      -0.41176471       0.17647059       0.00000000 </v>
    <v>      -0.35294118       0.17647059       0.00000000 </v>
    <v>       0.00000000       0.23529412       0.00000000 </v>
    <v>       0.05882353       0.23529412       0.00000000 </v>
    <v>       0.11764706       0.23529412       0.00000000 </v>
    <v>       0.17647059       0.23529412       0.00000000 </v>
    <v>       0.23529412       0.23529412       0.00000000 </v>
    <v>       0.29411765       0.23529412       0.00000000 </v>
    <v>       0.35294118       0.23529412       0.00000000 </v>
    <v>       0.41176471       0.23529412       0.00000000 </v>
    <v>       0.47058824       0.23529412       0.00000000 </v>
    <v>      -0.47058824       0.23529412       0.00000000 </v>
    <v>       0.00000000       0.29411765       0.00000000 </v>
    <v>       0.05882353       0.29411765       0.00000000 </v>
    <v>       0.11764706       0.29411765       0.00000000 </v>
    <v>       0.17647059       0.29411765       0.00000000 </v>
    <v>       0.23529412       0.29411765       0.00000000 </v>
    <v>       0.29411765       0.29411765       0.00000000 </v>
    <v>       0.35294118       0.29411765       0.00000000 </v>
    <v>       0.41176471       0.29411765       0.00000000 </v>
    <v>       0.00000000       0.35294118       0.00000000 </v>
    <v>       0.05882353       0.35294118       0.00000000 </v>
    <v>       0.11764706       0.35294118       0.00000000 </v>
    <v>       0.17647059       0.35294118       0.00000000 </v>
    <v>       0.23529412       0.35294118       0.00000000 </v>
    <v>       0.29411765       0.35294118       0.00000000 </v>
    <v>       0.00000000       0.41176471       0.00000000 </v>
    <v>       0.05882353       0.41176471       0.00000000 </v>
    <v>       0.11764706       0.41176471       0.00000000 </v>
    <v>       0.17647059       0.41176471       0.00000000 </v>
    <v>       0.00000000       0.47058824       0.00000000 </v>
    <v>       0.05882353       0.47058824       0.00000000 </v>
    <v>       0.00000000       0.00000000       0.11111111 </v>
    <v>       0.05882353       0.00000000       0.11111111 </v>
    <v>       0.11764706       0.00000000       0.11111111 </v>
    <v>       0.17647059       0.00000000       0.11111111 </v>
    <v>       0.23529412       0.00000000       0.11111111 </v>
    <v>       0.29411765      -0.00000000       0.11111111 </v>
    <v>       0.35294118       0.00000000       0.11111111 </v>
    <v>       0.41176471       0.00000000       0.11111111 </v>
    <v>       0.47058824       0.00000000       0.11111111 </v>
    <v>      -0.47058824       0.00000000       0.11111111 </v>
    <v>      -0.41176471       0.00000000       0.11111111 </v>
    <v>      -0.35294118       0.00000000       0.11111111 </v>
    <v>      -0.29411765       0.00000000       0.11111111 </v>
    <v>      -0.23529412       0.00000000       0.11111111 </v>
    <v>      -0.17647059      -0.00000000       0.11111111 </v>
    <v>      -0.11764706       0.00000000       0.11111111 </v>
    <v>      -0.05882353       0.00000000       0.11111111 </v>
    <v>       0.00000000       0.05882353       0.11111111 </v>
    <v>       0.05882353       0.05882353       0.11111111 </v>
    <v>       0.11764706       0.05882353       0.11111111 </v>
    <v>       0.17647059       0.05882353       0.11111111 </v>
    <v>       0.23529412       0.05882353       0.11111111 </v>
    <v>       0.29411765       0.05882353       0.11111111 </v>
    <v>       0.35294118       0.05882353       0.11111111 </v>
    <v>       0.41176471       0.05882353       0.11111111 </v>
    <v>       0.47058824       0.05882353       0.11111111 </v>
    <v>      -0.47058824       0.05882353       0.11111111 </v>
    <v>      -0.41176471       0.05882353       0.11111111 </v>
    <v>      -0.35294118       0.05882353       0.11111111 </v>
    <v>      -0.29411765       0.05882353       0.11111111 </v>
    <v>      -0.23529412       0.05882353       0.11111111 </v>
    <v>      -0.17647059       0.05882353       0.11111111 </v>
    <v>      -0.11764706       0.05882353       0.11111111 </v>
    <v>       0.00000000       0.11764706       0.11111111 </v>
    <v>       0.05882353       0.11764706       0.11111111 </v>
    <v>       0.11764706       0.11764706       0.11111111 </v>
    <v>       0.17647059       0.11764706       0.11111111 </v>
    <v>       0.23529412       0.11764706       0.11111111 </v>
    <v>       0.29411765       0.11764706       0.11111111 </v>
    <v>       0.35294118       0.11764706       0.11111111 </v>
    <v>       0.41176471       0.11764706       0.11111111 </v>
    <v>       0.47058824       0.11764706       0.11111111 </v>
    <v>      -0.47058824       0.11764706       0.11111111 </v>
    <v>      -0.41176471       0.11764706       0.11111111 </v>
    <v>      -0.35294118       0.11764706       0.11111111 </v>
    <v>      -0.29411765       0.11764706       0.11111111 </v>
    <v>      -0.23529412       0.11764706       0.11111111 </v>
    <v>      -0.05882353       0.11764706       0.11111111 </v>
    <v>       0.00000000       0.17647059       0.11111111 </v>
    <v>       0.05882353       0.17647059       0.11111111 </v>
    <v>       0.11764706       0.17647059       0.11111111 </v>
    <v>       0.17647059       0.17647059       0.11111111 </v>
    <v>       0.23529412       0.17647059       0.11111111 </v>
    <v>       0.29411765       0.17647059       0.11111111 </v>
    <v>       0.35294118       0.17647059       0.11111111 </v>
    <v>       0.41176471       0.17647059       0.11111111 </v>
    <v>       0.47058824       0.17647059       0.11111111 </v>
    <v>      -0.47058824       0.17647059       0.11111111 </v>
    <v>      -0.41176471       0.17647059       0.11111111 </v>
    <v>      -0.35294118       0.17647059       0.11111111 </v>
    <v>      -0.11764706       0.17647059       0.11111111 </v>
    <v>      -0.05882353       0.17647059       0.11111111 </v>
    <v>       0.00000000       0.23529412       0.11111111 </v>
    <v>       0.05882353       0.23529412       0.11111111 </v>
    <v>       0.11764706       0.23529412       0.11111111 </v>
    <v>       0.17647059       0.23529412       0.11111111 </v>
    <v>       0.23529412       0.23529412       0.11111111 </v>
    <v>       0.29411765       0.23529412       0.11111111 </v>
    <v>       0.35294118       0.23529412       0.11111111 </v>
    <v>       0.41176471       0.23529412       0.11111111 </v>
    <v>       0.47058824       0.23529412       0.11111111 </v>
    <v>      -0.47058824       0.23529412       0.11111111 </v>
    <v>      -0.17647059       0.23529412       0.11111111 </v>
    <v>      -0.11764706       0.23529412       0.11111111 </v>
    <v>      -0.05882353       0.23529412       0.11111111 </v>
    <v>       0.00000000       0.29411765       0.11111111 </v>
    <v>       0.05882353       0.29411765       0.11111111 </v>
    <v>       0.11764706       0.29411765       0.11111111 </v>
    <v>       0.17647059       0.29411765       0.11111111 </v>
    <v>       0.23529412       0.29411765       0.11111111 </v>
    <v>       0.29411765       0.29411765       0.11111111 </v>
    <v>       0.35294118       0.29411765       0.11111111 </v>
    <v>       0.41176471       0.29411765       0.11111111 </v>
    <v>      -0.23529412       0.29411765       0.11111111 </v>
    <v>      -0.17647059       0.29411765       0.11111111 </v>
    <v>      -0.11764706       0.29411765       0.11111111 </v>
    <v>      -0.05882353       0.29411765       0.11111111 </v>
    <v>       0.00000000       0.35294118       0.11111111 </v>
    <v>       0.05882353       0.35294118       0.11111111 </v>
    <v>       0.11764706       0.35294118       0.11111111 </v>
    <v>       0.17647059       0.35294118       0.11111111 </v>
    <v>       0.23529412       0.35294118       0.11111111 </v>
    <v>       0.29411765       0.35294118       0.11111111 </v>
    <v>      -0.29411765       0.35294118       0.11111111 </v>
    <v>      -0.23529412       0.35294118       0.11111111 </v>
    <v>      -0.17647059       0.35294118       0.11111111 </v>
    <v>      -0.11764706       0.35294118       0.11111111 </v>
    <v>      -0.05882353       0.35294118       0.11111111 </v>
    <v>       0.00000000       0.41176471       0.11111111 </v>
    <v>       0.05882353       0.41176471       0.11111111 </v>
    <v>       0.11764706       0.41176471       0.11111111 </v>
    <v>       0.17647059       0.41176471       0.11111111 </v>
    <v>      -0.35294118       0.41176471       0.11111111 </v>
    <v>      -0.29411765       0.41176471       0.11111111 </v>
    <v>      -0.23529412       0.41176471       0.11111111 </v>
    <v>      -0.17647059       0.41176471       0.11111111 </v>
    <v>      -0.11764706       0.41176471       0.11111111 </v>
    <v>      -0.05882353       0.41176471       0.11111111 </v>
    <v>       0.00000000       0.47058824       0.11111111 </v>
    <v>       0.05882353       0.47058824       0.11111111 </v>
    <v>      -0.41176471       0.47058824       0.11111111 </v>
    <v>      -0.35294118       0.47058824       0.11111111 </v>
    <v>      -0.29411765       0.47058824       0.11111111 </v>
    <v>      -0.23529412       0.47058824       0.11111111 </v>
    <v>      -0.17647059       0.47058824       0.11111111 </v>
    <v>      -0.11764706       0.47058824       0.11111111 </v>
    <v>      -0.05882353       0.47058824       0.11111111 </v>
    <v>      -0.47058824      -0.47058824       0.11111111 </v>
    <v>      -0.41176471      -0.47058824       0.11111111 </v>
    <v>      -0.35294118      -0.47058824       0.11111111 </v>
    <v>      -0.29411765      -0.47058824       0.11111111 </v>
    <v>      -0.23529412      -0.47058824       0.11111111 </v>
    <v>      -0.17647059      -0.47058824       0.11111111 </v>
    <v>      -0.11764706      -0.47058824       0.11111111 </v>
    <v>      -0.05882353      -0.47058824       0.11111111 </v>
    <v>       0.47058824      -0.41176471       0.11111111 </v>
    <v>      -0.47058824      -0.41176471       0.11111111 </v>
    <v>      -0.41176471      -0.41176471       0.11111111 </v>
    <v>      -0.35294118      -0.41176471       0.11111111 </v>
    <v>      -0.29411765      -0.41176471       0.11111111 </v>
    <v>      -0.23529412      -0.41176471       0.11111111 </v>
    <v>      -0.17647059      -0.41176471       0.11111111 </v>
    <v>       0.41176471      -0.35294118       0.11111111 </v>
    <v>       0.47058824      -0.35294118       0.11111111 </v>
    <v>      -0.47058824      -0.35294118       0.11111111 </v>
    <v>      -0.41176471      -0.35294118       0.11111111 </v>
    <v>      -0.35294118      -0.35294118       0.11111111 </v>
    <v>      -0.29411765      -0.35294118       0.11111111 </v>
    <v>       0.35294118      -0.29411765       0.11111111 </v>
    <v>       0.41176471      -0.29411765       0.11111111 </v>
    <v>       0.47058824      -0.29411765       0.11111111 </v>
    <v>      -0.47058824      -0.29411765       0.11111111 </v>
    <v>      -0.41176471      -0.29411765       0.11111111 </v>
    <v>       0.29411765      -0.23529412       0.11111111 </v>
    <v>       0.35294118      -0.23529412       0.11111111 </v>
    <v>       0.41176471      -0.23529412       0.11111111 </v>
    <v>       0.47058824      -0.23529412       0.11111111 </v>
    <v>       0.23529412      -0.17647059       0.11111111 </v>
    <v>       0.29411765      -0.17647059       0.11111111 </v>
    <v>       0.35294118      -0.17647059       0.11111111 </v>
    <v>       0.17647059      -0.11764706       0.11111111 </v>
    <v>       0.23529412      -0.11764706       0.11111111 </v>
    <v>       0.11764706      -0.05882353       0.11111111 </v>
    <v>       0.00000000       0.00000000       0.22222222 </v>
    <v>       0.05882353       0.00000000       0.22222222 </v>
    <v>       0.11764706       0.00000000       0.22222222 </v>
    <v>       0.17647059       0.00000000       0.22222222 </v>
    <v>       0.23529412       0.00000000       0.22222222 </v>
    <v>       0.29411765      -0.00000000       0.22222222 </v>
    <v>       0.35294118       0.00000000       0.22222222 </v>
    <v>       0.41176471       0.00000000       0.22222222 </v>
    <v>       0.47058824       0.00000000       0.22222222 </v>
    <v>      -0.47058824       0.00000000       0.22222222 </v>
    <v>      -0.41176471       0.00000000       0.22222222 </v>
    <v>      -0.35294118       0.00000000       0.22222222 </v>
    <v>      -0.29411765       0.00000000       0.22222222 </v>
    <v>      -0.23529412       0.00000000       0.22222222 </v>
    <v>      -0.17647059      -0.00000000       0.22222222 </v>
    <v>      -0.11764706       0.00000000       0.22222222 </v>
    <v>      -0.05882353       0.00000000       0.22222222 </v>
    <v>       0.00000000       0.05882353       0.22222222 </v>
    <v>       0.05882353       0.05882353       0.22222222 </v>
    <v>       0.11764706       0.05882353       0.22222222 </v>
    <v>       0.17647059       0.05882353       0.22222222 </v>
    <v>       0.23529412       0.05882353       0.22222222 </v>
    <v>       0.29411765       0.05882353       0.22222222 </v>
    <v>       0.35294118       0.05882353       0.22222222 </v>
    <v>       0.41176471       0.05882353       0.22222222 </v>
    <v>       0.47058824       0.05882353       0.22222222 </v>
    <v>      -0.47058824       0.05882353       0.22222222 </v>
    <v>      -0.41176471       0.05882353       0.22222222 </v>
    <v>      -0.35294118       0.05882353       0.22222222 </v>
    <v>      -0.29411765       0.05882353       0.22222222 </v>
    <v>      -0.23529412       0.05882353       0.22222222 </v>
    <v>      -0.17647059       0.05882353       0.22222222 </v>
    <v>      -0.11764706       0.05882353       0.22222222 </v>
    <v>       0.00000000       0.11764706       0.22222222 </v>
    <v>       0.05882353       0.11764706       0.22222222 </v>
    <v>       0.11764706       0.11764706       0.22222222 </v>
    <v>       0.17647059       0.11764706       0.22222222 </v>
    <v>       0.23529412       0.11764706       0.22222222 </v>
    <v>       0.29411765       0.11764706       0.22222222 </v>
    <v>       0.35294118       0.11764706       0.22222222 </v>
    <v>       0.41176471       0.11764706       0.22222222 </v>
    <v>       0.47058824       0.11764706       0.22222222 </v>
    <v>      -0.47058824       0.11764706       0.22222222 </v>
    <v>      -0.41176471       0.11764706       0.22222222 </v>
    <v>      -0.35294118       0.11764706       0.22222222 </v>
    <v>      -0.29411765       0.11764706       0.22222222 </v>
    <v>      -0.23529412       0.11764706       0.22222222 </v>
    <v>      -0.05882353       0.11764706       0.22222222 </v>
    <v>       0.00000000       0.17647059       0.22222222 </v>
    <v>       0.05882353       0.17647059       0.22222222 </v>
    <v>       0.11764706       0.17647059       0.22222222 </v>
    <v>       0.17647059       0.17647059       0.22222222 </v>
    <v>       0.23529412       0.17647059       0.22222222 </v>
    <v>       0.29411765       0.17647059       0.22222222 </v>
    <v>       0.35294118       0.17647059       0.22222222 </v>
    <v>       0.41176471       0.17647059       0.22222222 </v>
    <v>       0.47058824       0.17647059       0.22222222 </v>
    <v>      -0.47058824       0.17647059       0.22222222 </v>
    <v>      -0.41176471       0.17647059       0.22222222 </v>
    <v>      -0.35294118       0.17647059       0.22222222 </v>
    <v>      -0.11764706       0.17647059       0.22222222 </v>
    <v>      -0.05882353       0.17647059       0.22222222 </v>
    <v>       0.00000000       0.23529412       0.22222222 </v>
    <v>       0.05882353       0.23529412       0.22222222 </v>
    <v>       0.11764706       0.23529412       0.22222222 </v>
    <v>       0.17647059       0.23529412       0.22222222 </v>
    <v>       0.23529412       0.23529412       0.22222222 </v>
    <v>       0.29411765       0.23529412       0.22222222 </v>
    <v>       0.35294118       0.23529412       0.22222222 </v>
    <v>       0.41176471       0.23529412       0.22222222 </v>
    <v>       0.47058824       0.23529412       0.22222222 </v>
    <v>      -0.47058824       0.23529412       0.22222222 </v>
    <v>      -0.17647059       0.23529412       0.22222222 </v>
    <v>      -0.11764706       0.23529412       0.22222222 </v>
    <v>      -0.05882353       0.23529412       0.22222222 </v>
    <v>       0.00000000       0.29411765       0.22222222 </v>
    <v>       0.05882353       0.29411765       0.22222222 </v>
    <v>       0.11764706       0.29411765       0.22222222 </v>
    <v>       0.17647059       0.29411765       0.22222222 </v>
    <v>       0.23529412       0.29411765       0.22222222 </v>
    <v>       0.29411765       0.29411765       0.22222222 </v>
    <v>       0.35294118       0.29411765       0.22222222 </v>
    <v>       0.41176471       0.29411765       0.22222222 </v>
    <v>      -0.23529412       0.29411765       0.22222222 </v>
    <v>      -0.17647059       0.29411765       0.22222222 </v>
    <v>      -0.11764706       0.29411765       0.22222222 </v>
    <v>      -0.05882353       0.29411765       0.22222222 </v>
    <v>       0.00000000       0.35294118       0.22222222 </v>
    <v>       0.05882353       0.35294118       0.22222222 </v>
    <v>       0.11764706       0.35294118       0.22222222 </v>
    <v>       0.17647059       0.35294118       0.22222222 </v>
    <v>       0.23529412       0.35294118       0.22222222 </v>
    <v>       0.29411765       0.35294118       0.22222222 </v>
    <v>      -0.29411765       0.35294118       0.22222222 </v>
    <v>      -0.23529412       0.35294118       0.22222222 </v>
    <v>      -0.17647059       0.35294118       0.22222222 </v>
    <v>      -0.11764706       0.35294118       0.22222222 </v>
    <v>      -0.05882353       0.35294118       0.22222222 </v>
    <v>       0.00000000       0.41176471       0.22222222 </v>
    <v>       0.05882353       0.41176471       0.22222222 </v>
    <v>       0.11764706       0.41176471       0.22222222 </v>
    <v>       0.17647059       0.41176471       0.22222222 </v>
    <v>      -0.35294118       0.41176471       0.22222222 </v>
    <v>      -0.29411765       0.41176471       0.22222222 </v>
    <v>      -0.23529412       0.41176471       0.22222222 </v>
    <v>      -0.17647059       0.41176471       0.22222222 </v>
    <v>      -0.11764706       0.41176471       0.22222222 </v>
    <v>      -0.05882353       0.41176471       0.22222222 </v>
    <v>       0.00000000       0.47058824       0.22222222 </v>
    <v>       0.05882353       0.47058824       0.22222222 </v>
    <v>      -0.41176471       0.47058824       0.22222222 </v>
    <v>      -0.35294118       0.47058824       0.22222222 </v>
    <v>      -0.29411765       0.47058824       0.22222222 </v>
    <v>      -0.23529412       0.47058824       0.22222222 </v>
    <v>      -0.17647059       0.47058824       0.22222222 </v>
    <v>      -0.11764706       0.47058824       0.22222222 </v>
    <v>      -0.05882353       0.47058824       0.22222222 </v>
    <v>      -0.47058824      -0.47058824       0.22222222 </v>
    <v>      -0.41176471      -0.47058824       0.22222222 </v>
    <v>      -0.35294118      -0.47058824       0.22222222 </v>
    <v>      -0.29411765      -0.47058824       0.22222222 </v>
    <v>      -0.23529412      -0.47058824       0.22222222 </v>
    <v>      -0.17647059      -0.47058824       0.22222222 </v>
    <v>      -0.11764706      -0.47058824       0.22222222 </v>
    <v>      -0.05882353      -0.47058824       0.22222222 </v>
    <v>       0.47058824      -0.41176471       0.22222222 </v>
    <v>      -0.47058824      -0.41176471       0.22222222 </v>
    <v>      -0.41176471      -0.41176471       0.22222222 </v>
    <v>      -0.35294118      -0.41176471       0.22222222 </v>
    <v>      -0.29411765      -0.41176471       0.22222222 </v>
    <v>      -0.23529412      -0.41176471       0.22222222 </v>
    <v>      -0.17647059      -0.41176471       0.22222222 </v>
    <v>       0.41176471      -0.35294118       0.22222222 </v>
    <v>       0.47058824      -0.35294118       0.22222222 </v>
    <v>      -0.47058824      -0.35294118       0.22222222 </v>
    <v>      -0.41176471      -0.35294118       0.22222222 </v>
    <v>      -0.35294118      -0.35294118       0.22222222 </v>
    <v>      -0.29411765      -0.35294118       0.22222222 </v>
    <v>       0.35294118      -0.29411765       0.22222222 </v>
    <v>       0.41176471      -0.29411765       0.22222222 </v>
    <v>       0.47058824      -0.29411765       0.22222222 </v>
    <v>      -0.47058824      -0.29411765       0.22222222 </v>
    <v>      -0.41176471      -0.29411765       0.22222222 </v>
    <v>       0.29411765      -0.23529412       0.22222222 </v>
    <v>       0.35294118      -0.23529412       0.22222222 </v>
    <v>       0.41176471      -0.23529412       0.22222222 </v>
    <v>       0.47058824      -0.23529412       0.22222222 </v>
    <v>       0.23529412      -0.17647059       0.22222222 </v>
    <v>       0.29411765      -0.17647059       0.22222222 </v>
    <v>       0.35294118      -0.17647059       0.22222222 </v>
    <v>       0.17647059      -0.11764706       0.22222222 </v>
    <v>       0.23529412      -0.11764706       0.22222222 </v>
    <v>       0.11764706      -0.05882353       0.22222222 </v>
    <v>       0.00000000       0.00000000       0.33333333 </v>
    <v>       0.05882353       0.00000000       0.33333333 </v>
    <v>       0.11764706       0.00000000       0.33333333 </v>
    <v>       0.17647059       0.00000000       0.33333333 </v>
    <v>       0.23529412       0.00000000       0.33333333 </v>
    <v>       0.29411765      -0.00000000       0.33333333 </v>
    <v>       0.35294118       0.00000000       0.33333333 </v>
    <v>       0.41176471       0.00000000       0.33333333 </v>
    <v>       0.47058824       0.00000000       0.33333333 </v>
    <v>      -0.47058824       0.00000000       0.33333333 </v>
    <v>      -0.41176471       0.00000000       0.33333333 </v>
    <v>      -0.35294118       0.00000000       0.33333333 </v>
    <v>      -0.29411765       0.00000000       0.33333333 </v>
    <v>      -0.23529412       0.00000000       0.33333333 </v>
    <v>      -0.17647059      -0.00000000       0.33333333 </v>
    <v>      -0.11764706       0.00000000       0.33333333 </v>
    <v>      -0.05882353       0.00000000       0.33333333 </v>
    <v>       0.00000000       0.05882353       0.33333333 </v>
    <v>       0.05882353       0.05882353       0.33333333 </v>
    <v>       0.11764706       0.05882353       0.33333333 </v>
    <v>       0.17647059       0.05882353       0.33333333 </v>
    <v>       0.23529412       0.05882353       0.33333333 </v>
    <v>       0.29411765       0.05882353       0.33333333 </v>
    <v>       0.35294118       0.05882353       0.33333333 </v>
    <v>       0.41176471       0.05882353       0.33333333 </v>
    <v>       0.47058824       0.05882353       0.33333333 </v>
    <v>      -0.47058824       0.05882353       0.33333333 </v>
    <v>      -0.41176471       0.05882353       0.33333333 </v>
    <v>      -0.35294118       0.05882353       0.33333333 </v>
    <v>      -0.29411765       0.05882353       0.33333333 </v>
    <v>      -0.23529412       0.05882353       0.33333333 </v>
    <v>      -0.17647059       0.05882353       0.33333333 </v>
    <v>      -0.11764706       0.05882353       0.33333333 </v>
    <v>       0.00000000       0.11764706       0.33333333 </v>
    <v>       0.05882353       0.11764706       0.33333333 </v>
    <v>       0.11764706       0.11764706       0.33333333 </v>
    <v>       0.17647059       0.11764706       0.33333333 </v>
    <v>       0.23529412       0.11764706       0.33333333 </v>
    <v>       0.29411765       0.11764706       0.33333333 </v>
    <v>       0.35294118       0.11764706       0.33333333 </v>
    <v>       0.41176471       0.11764706       0.33333333 </v>
    <v>       0.47058824       0.11764706       0.33333333 </v>
    <v>      -0.47058824       0.11764706       0.33333333 </v>
    <v>      -0.41176471       0.11764706       0.33333333 </v>
    <v>      -0.35294118       0.11764706       0.33333333 </v>
    <v>      -0.29411765       0.11764706       0.33333333 </v>
    <v>      -0.23529412       0.11764706       0.33333333 </v>
    <v>      -0.05882353       0.11764706       0.33333333 </v>
    <v>       0.00000000       0.17647059       0.33333333 </v>
    <v>       0.05882353       0.17647059       0.33333333 </v>
    <v>       0.11764706       0.17647059       0.33333333 </v>
    <v>       0.17647059       0.17647059       0.33333333 </v>
    <v>       0.23529412       0.17647059       0.33333333 </v>
    <v>       0.29411765       0.17647059       0.33333333 </v>
    <v>       0.35294118       0.17647059       0.33333333 </v>
    <v>       0.41176471       0.17647059       0.33333333 </v>
    <v>       0.47058824       0.17647059       0.33333333 </v>
    <v>      -0.47058824       0.17647059       0.33333333 </v>
    <v>      -0.41176471       0.17647059       0.33333333 </v>
    <v>      -0.35294118       0.17647059       0.33333333 </v>
    <v>      -0.11764706       0.17647059       0.33333333 </v>
    <v>      -0.05882353       0.17647059       0.33333333 </v>
    <v>       0.00000000       0.23529412       0.33333333 </v>
    <v>       0.05882353       0.23529412       0.33333333 </v>
    <v>       0.11764706       0.23529412       0.33333333 </v>
    <v>       0.17647059       0.23529412       0.33333333 </v>
    <v>       0.23529412       0.23529412       0.33333333 </v>
    <v>       0.29411765       0.23529412       0.33333333 </v>
    <v>       0.35294118       0.23529412       0.33333333 </v>
    <v>       0.41176471       0.23529412       0.33333333 </v>
    <v>       0.47058824       0.23529412       0.33333333 </v>
    <v>      -0.47058824       0.23529412       0.33333333 </v>
    <v>      -0.17647059       0.23529412       0.33333333 </v>
    <v>      -0.11764706       0.23529412       0.33333333 </v>
    <v>      -0.05882353       0.23529412       0.33333333 </v>
    <v>       0.00000000       0.29411765       0.33333333 </v>
    <v>       0.05882353       0.29411765       0.33333333 </v>
    <v>       0.11764706       0.29411765       0.33333333 </v>
    <v>       0.17647059       0.29411765       0.33333333 </v>
    <v>       0.23529412       0.29411765       0.33333333 </v>
    <v>       0.29411765       0.29411765       0.33333333 </v>
    <v>       0.35294118       0.29411765       0.33333333 </v>
    <v>       0.41176471       0.29411765       0.33333333 </v>
    <v>      -0.23529412       0.29411765       0.33333333 </v>
    <v>      -0.17647059       0.29411765       0.33333333 </v>
    <v>      -0.11764706       0.29411765       0.33333333 </v>
    <v>      -0.05882353       0.29411765       0.33333333 </v>
    <v>       0.00000000       0.35294118       0.33333333 </v>
    <v>       0.05882353       0.35294118       0.33333333 </v>
    <v>       0.11764706       0.35294118       0.33333333 </v>
    <v>       0.17647059       0.35294118       0.33333333 </v>
    <v>       0.23529412       0.35294118       0.33333333 </v>
    <v>       0.29411765       0.35294118       0.33333333 </v>
    <v>      -0.29411765       0.35294118       0.33333333 </v>
[...]
       <r>   17.5208    0.0000 </r>
       <r>   20.4246    0.0000 </r>
       <r>   20.8420    0.0000 </r>
       <r>   24.0009    0.0000 </r>
       <r>   24.0424    0.0000 </r>
       <r>   26.6042    0.0000 </r>
       <r>   26.6898    0.0000 </r>
       <r>   28.4161    0.0000 </r>
       <r>   28.5963    0.0000 </r>
       <r>   29.7343    0.0000 </r>
       <r>   30.4769    0.0000 </r>
       <r>   31.2182    0.0000 </r>
       <r>   31.7474    0.0000 </r>
       <r>   32.9303    0.0000 </r>
       <r>   33.3918    0.0000 </r>
       <r>   33.8814    0.0000 </r>
       <r>   35.1936    0.0000 </r>
       <r>   35.3821    0.0000 </r>
       <r>   36.0763    0.0000 </r>
       <r>   36.9049    0.0000 </r>
       <r>   36.9435    0.0000 </r>
       <r>   38.9864    0.0000 </r>
       <r>   39.2585    0.0000 </r>
      </set>
      <set comment="kpoint 164">
       <r>  -10.2940    1.0000 </r>
       <r>  -10.2146    1.0000 </r>
       <r>   -3.3096    1.0000 </r>
       <r>   -3.2398    1.0000 </r>
       <r>   -1.3021    1.0000 </r>
       <r>   -0.9256    1.0000 </r>
       <r>    1.1249    1.0000 </r>
       <r>    1.3188    1.0000 </r>
       <r>    8.7036    0.0000 </r>
       <r>    8.7740    0.0000 </r>
       <r>   10.0714    0.0000 </r>
       <r>   10.3452    0.0000 </r>
       <r>   11.3868    0.0000 </r>
       <r>   11.5206    0.0000 </r>
       <r>   15.4705    0.0000 </r>
       <r>   15.8467    0.0000 </r>
       <r>   16.8988    0.0000 </r>
       <r>   17.3190    0.0000 </r>
       <r>   20.3101    0.0000 </r>
       <r>   20.5763    0.0000 </r>
       <r>   24.1769    0.0000 </r>
       <r>   24.2036    0.0000 </r>
       <r>   26.7088    0.0000 </r>
       <r>   26.7704    0.0000 </r>
       <r>   28.4601    0.0000 </r>
       <r>   28.4622    0.0000 </r>
       <r>   30.2408    0.0000 </r>
       <r>   30.5254    0.0000 </r>
       <r>   31.3682    0.0000 </r>
       <r>   31.5904    0.0000 </r>
       <r>   32.9923    0.0000 </r>
       <r>   33.1499    0.0000 </r>
       <r>   33.7209    0.0000 </r>
       <r>   34.7813    0.0000 </r>
       <r>   35.1679    0.0000 </r>
       <r>   35.8891    0.0000 </r>
       <r>   36.8525    0.0000 </r>
       <r>   36.9088    0.0000 </r>
       <r>   40.0721    0.0000 </r>
       <r>   40.1120    0.0000 </r>
      </set>
      <set comment="kpoint 165">
       <r>  -10.2243    1.0000 </r>
       <r>  -10.1906    1.0000 </r>
       <r>   -3.3040    1.0000 </r>
       <r>   -3.2631    1.0000 </r>
       <r>   -1.4567    1.0000 </r>
       <r>   -1.0660    1.0000 </r>
       <r>    1.2064    1.0000 </r>
       <r>    1.2931    1.0000 </r>
       <r>    8.8069    0.0000 </r>
       <r>    8.9606    0.0000 </r>
       <r>    9.8134    0.0000 </r>
       <r>   10.2653    0.0000 </r>
       <r>   11.4655    0.0000 </r>
       <r>   11.4891    0.0000 </r>
       <r>   15.8851    0.0000 </r>
       <r>   16.1387    0.0000 </r>
       <r>   16.6956    0.0000 </r>
       <r>   17.0426    0.0000 </r>
       <r>   20.1679    0.0000 </r>
       <r>   20.3562    0.0000 </r>
       <r>   24.2625    0.0000 </r>
       <r>   24.2892    0.0000 </r>
       <r>   26.8204    0.0000 </r>
       <r>   26.8870    0.0000 </r>
       <r>   28.5249    0.0000 </r>
       <r>   28.6151    0.0000 </r>
       <r>   30.2713    0.0000 </r>
       <r>   31.0991    0.0000 </r>
       <r>   31.1024    0.0000 </r>
       <r>   31.4581    0.0000 </r>
       <r>   33.0101    0.0000 </r>
       <r>   33.2008    0.0000 </r>
       <r>   33.3408    0.0000 </r>
       <r>   34.8750    0.0000 </r>
       <r>   34.8977    0.0000 </r>
       <r>   35.5886    0.0000 </r>
       <r>   37.7113    0.0000 </r>
       <r>   38.1054    0.0000 </r>
       <r>   39.4239    0.0000 </r>
       <r>   39.5053    0.0000 </r>
      </set>
     </set>
    </set>
   </array>
  </eigenvalues>
  <separator name="orbital magnetization" >
   <v name="MAGDIPOLOUT">      0.00000000      0.00000000      0.00000000</v>
  </separator>
  <dos>
   <i name="efermi">      2.86310218 </i>
   <total>
    <array>
     <dimension dim="1">gridpoints</dimension>
     <dimension dim="2">spin</dimension>
     <field>energy</field>
     <field>total</field>
     <field>integrated</field>
     <set>
      <set comment="spin 1">
       <r>   -15.7149     0.0000     0.0000 </r>
       <r>   -15.5110     0.0000     0.0000 </r>
       <r>   -15.3072     0.0000     0.0000 </r>
       <r>   -15.1033     0.0000     0.0000 </r>
       <r>   -14.8994     0.0000     0.0000 </r>
       <r>   -14.6955     0.0000     0.0000 </r>
       <r>   -14.4917     0.0000     0.0000 </r>
       <r>   -14.2878     0.0000     0.0000 </r>
       <r>   -14.0839     0.0000     0.0000 </r>
       <r>   -13.8800     0.0000     0.0000 </r>
       <r>   -13.6762     0.0000     0.0000 </r>
       <r>   -13.4723     0.0000     0.0000 </r>
       <r>   -13.2684     0.0000     0.0000 </r>
       <r>   -13.0645     0.0000     0.0000 </r>
       <r>   -12.8607     0.0432     0.0088 </r>
       <r>   -12.6568     0.2349     0.0567 </r>
       <r>   -12.4529     0.3695     0.1320 </r>
       <r>   -12.2491     0.4674     0.2273 </r>
       <r>   -12.0452     0.6113     0.3519 </r>
       <r>   -11.8413     0.6693     0.4884 </r>
       <r>   -11.6374     0.8879     0.6694 </r>
       <r>   -11.4336     0.8575     0.8442 </r>
       <r>   -11.2297     1.1278     1.0742 </r>
       <r>   -11.0258     1.3592     1.3513 </r>
       <r>   -10.8219     1.7684     1.7118 </r>
       <r>   -10.6181     2.3747     2.1959 </r>
       <r>   -10.4142     2.4552     2.6965 </r>
       <r>   -10.2103     2.5692     3.2203 </r>
       <r>   -10.0064     3.3750     3.9084 </r>
       <r>    -9.8026     0.4495     4.0000 </r>
       <r>    -9.5987     0.0000     4.0000 </r>
       <r>    -9.3948     0.0000     4.0000 </r>
       <r>    -9.1909     0.0000     4.0000 </r>
       <r>    -8.9871     0.0000     4.0000 </r>
       <r>    -8.7832     0.0000     4.0000 </r>
       <r>    -8.5793     0.0000     4.0000 </r>
       <r>    -8.3754     0.0000     4.0000 </r>
       <r>    -8.1716     0.0000     4.0000 </r>
       <r>    -7.9677     0.0000     4.0000 </r>
       <r>    -7.7638     0.0000     4.0000 </r>
       <r>    -7.5600     0.0000     4.0000 </r>
       <r>    -7.3561     0.0000     4.0000 </r>
       <r>    -7.1522     0.0000     4.0000 </r>
       <r>    -6.9483     0.0000     4.0000 </r>
       <r>    -6.7445     0.0000     4.0000 </r>
       <r>    -6.5406     0.0000     4.0000 </r>
       <r>    -6.3367     0.0000     4.0000 </r>
       <r>    -6.1328     0.0000     4.0000 </r>
       <r>    -5.9290     0.0000     4.0000 </r>
       <r>    -5.7251     0.0000     4.0000 </r>
       <r>    -5.5212     0.0000     4.0000 </r>
       <r>    -5.3173     0.0000     4.0000 </r>
       <r>    -5.1135     0.0000     4.0000 </r>
       <r>    -4.9096     0.0000     4.0000 </r>
       <r>    -4.7057     0.0000     4.0000 </r>
       <r>    -4.5018     0.0000     4.0000 </r>
       <r>    -4.2980     0.0000     4.0000 </r>
       <r>    -4.0941     0.0015     4.0003 </r>
       <r>    -3.8902     0.0636     4.0133 </r>
       <r>    -3.6863     0.6344     4.1426 </r>
       <r>    -3.4825     1.4061     4.4293 </r>
       <r>    -3.2786     2.1479     4.8672 </r>
       <r>    -3.0747     2.8210     5.4423 </r>
       <r>    -2.8709     2.6627     5.9852 </r>
       <r>    -2.6670     1.4420     6.2791 </r>
       <r>    -2.4631     1.6172     6.6089 </r>
       <r>    -2.2592     1.2702     6.8678 </r>
       <r>    -2.0554     1.0231     7.0764 </r>
       <r>    -1.8515     0.7224     7.2237 </r>
       <r>    -1.6476     1.0519     7.4381 </r>
       <r>    -1.4437     0.8201     7.6053 </r>
       <r>    -1.2399     1.6603     7.9438 </r>
       <r>    -1.0360     1.3525     8.2195 </r>
       <r>    -0.8321     1.4649     8.5182 </r>
       <r>    -0.6282     1.6055     8.8455 </r>
       <r>    -0.4244     1.3184     9.1143 </r>
       <r>    -0.2205     1.9244     9.5066 </r>
       <r>    -0.0166     1.9158     9.8972 </r>
       <r>     0.1873     1.8849    10.2815 </r>
       <r>     0.3911     2.6505    10.8219 </r>
       <r>     0.5950     2.2414    11.2788 </r>
       <r>     0.7989     2.9143    11.8730 </r>
       <r>     1.0028     3.0039    12.4854 </r>
       <r>     1.2066     3.3919    13.1770 </r>
       <r>     1.4105     3.9412    13.9805 </r>
       <r>     1.6144     2.9640    14.5847 </r>
       <r>     1.8182     2.3895    15.0719 </r>
       <r>     2.0221     1.7236    15.4233 </r>
       <r>     2.2260     1.3209    15.6926 </r>
       <r>     2.4299     0.9688    15.8901 </r>
       <r>     2.6337     0.5004    15.9922 </r>
       <r>     2.8376     0.0385    16.0000 </r>
       <r>     3.0415     0.0000    16.0000 </r>
       <r>     3.2454     0.0000    16.0000 </r>
       <r>     3.4492     0.0000    16.0000 </r>
       <r>     3.6531     0.0000    16.0000 </r>
       <r>     3.8570     0.0000    16.0000 </r>
       <r>     4.0609     0.0000    16.0000 </r>
       <r>     4.2647     0.0000    16.0000 </r>
       <r>     4.4686     0.0038    16.0008 </r>
       <r>     4.6725     0.0017    16.0011 </r>
       <r>     4.8764     0.0285    16.0069 </r>
       <r>     5.0802     0.0434    16.0158 </r>
       <r>     5.2841     0.0244    16.0208 </r>
       <r>     5.4880     0.0746    16.0360 </r>
       <r>     5.6919     0.0903    16.0544 </r>
       <r>     5.8957     0.0596    16.0665 </r>
       <r>     6.0996     0.1951    16.1063 </r>
       <r>     6.3035     0.1026    16.1272 </r>
       <r>     6.5073     0.2666    16.1816 </r>
       <r>     6.7112     0.2606    16.2347 </r>
       <r>     6.9151     0.5734    16.3516 </r>
       <r>     7.1190     1.4281    16.6427 </r>
       <r>     7.3228     1.0656    16.8600 </r>
       <r>     7.5267     1.7611    17.2190 </r>
       <r>     7.7306     1.3541    17.4951 </r>
       <r>     7.9345     1.7896    17.8599 </r>
       <r>     8.1383     1.9578    18.2591 </r>
       <r>     8.3422     1.8686    18.6400 </r>
       <r>     8.5461     2.1242    19.0731 </r>
       <r>     8.7500     1.4105    19.3607 </r>
       <r>     8.9538     1.2235    19.6101 </r>
       <r>     9.1577     1.1339    19.8413 </r>
       <r>     9.3616     1.2231    20.0906 </r>
       <r>     9.5655     0.9260    20.2794 </r>
       <r>     9.7693     1.2554    20.5354 </r>
       <r>     9.9732     1.8929    20.9213 </r>
       <r>    10.1771     2.2058    21.3710 </r>
       <r>    10.3810     2.6129    21.9037 </r>
       <r>    10.5848     3.7226    22.6626 </r>
       <r>    10.7887     3.4501    23.3660 </r>
       <r>    10.9926     1.6693    23.7063 </r>
       <r>    11.1964     0.5514    23.8187 </r>
       <r>    11.4003     0.7016    23.9618 </r>
       <r>    11.6042     1.0929    24.1846 </r>
       <r>    11.8081     1.1523    24.4195 </r>
       <r>    12.0119     1.5262    24.7307 </r>
       <r>    12.2158     2.6327    25.2674 </r>
       <r>    12.4197     3.4186    25.9644 </r>
       <r>    12.6236     3.1745    26.6115 </r>
       <r>    12.8274     2.5822    27.1380 </r>
       <r>    13.0313     2.2172    27.5900 </r>
       <r>    13.2352     1.6151    27.9193 </r>
       <r>    13.4391     1.4738    28.2197 </r>
       <r>    13.6429     1.9120    28.6096 </r>
       <r>    13.8468     1.6668    28.9494 </r>
       <r>    14.0507     1.5585    29.2671 </r>
       <r>    14.2546     1.2610    29.5242 </r>
       <r>    14.4584     1.6239    29.8553 </r>
       <r>    14.6623     1.6606    30.1938 </r>
       <r>    14.8662     1.1664    30.4316 </r>
       <r>    15.0701     1.5265    30.7428 </r>
       <r>    15.2739     1.0793    30.9629 </r>
       <r>    15.4778     1.5708    31.2831 </r>
       <r>    15.6817     1.6979    31.6293 </r>
       <r>    15.8855     1.9620    32.0293 </r>
       <r>    16.0894     1.7691    32.3899 </r>
       <r>    16.2933     1.8183    32.7607 </r>
       <r>    16.4972     1.6130    33.0895 </r>
       <r>    16.7010     0.6972    33.2317 </r>
       <r>    16.9049     1.1469    33.4655 </r>
       <r>    17.1088     1.0149    33.6724 </r>
       <r>    17.3127     1.1857    33.9141 </r>
       <r>    17.5165     0.9433    34.1064 </r>
       <r>    17.7204     1.0661    34.3238 </r>
       <r>    17.9243     1.7157    34.6735 </r>
       <r>    18.1282     1.2128    34.9208 </r>
       <r>    18.3320     1.2020    35.1659 </r>
       <r>    18.5359     0.7311    35.3149 </r>
       <r>    18.7398     0.8466    35.4875 </r>
       <r>    18.9437     1.0232    35.6961 </r>
       <r>    19.1475     0.9216    35.8840 </r>
       <r>    19.3514     0.5200    35.9900 </r>
       <r>    19.5553     1.1364    36.2217 </r>
       <r>    19.7592     1.1768    36.4616 </r>
       <r>    19.9630     1.0573    36.6772 </r>
       <r>    20.1669     1.4714    36.9772 </r>
       <r>    20.3708     1.4952    37.2820 </r>
       <r>    20.5746     1.5509    37.5982 </r>
       <r>    20.7785     1.6310    37.9307 </r>
       <r>    20.9824     2.1058    38.3600 </r>
       <r>    21.1863     1.3953    38.6445 </r>
       <r>    21.3901     1.9159    39.0351 </r>
       <r>    21.5940     1.9224    39.4270 </r>
       <r>    21.7979     1.6137    39.7560 </r>
       <r>    22.0018     1.8112    40.1253 </r>
       <r>    22.2056     1.1256    40.3548 </r>
       <r>    22.4095     1.1748    40.5943 </r>
       <r>    22.6134     0.9225    40.7824 </r>
       <r>    22.8173     1.3393    41.0554 </r>
       <r>    23.0211     2.3939    41.5435 </r>
       <r>    23.2250     2.4229    42.0374 </r>
       <r>    23.4289     1.9050    42.4258 </r>
       <r>    23.6328     1.9646    42.8263 </r>
       <r>    23.8366     2.2635    43.2878 </r>
       <r>    24.0405     2.7738    43.8533 </r>
       <r>    24.2444     2.2007    44.3020 </r>
       <r>    24.4483     1.3950    44.5864 </r>
       <r>    24.6521     0.6520    44.7193 </r>
       <r>    24.8560     0.8036    44.8832 </r>
       <r>    25.0599     0.7011    45.0261 </r>
       <r>    25.2638     1.8087    45.3948 </r>
       <r>    25.4676     1.7625    45.7542 </r>
       <r>    25.6715     2.0061    46.1632 </r>
       <r>    25.8754     1.5655    46.4823 </r>
       <r>    26.0792     2.3909    46.9697 </r>
       <r>    26.2831     2.6227    47.5044 </r>
       <r>    26.4870     3.4646    48.2108 </r>
       <r>    26.6909     2.8211    48.7859 </r>
       <r>    26.8947     2.0370    49.2012 </r>
       <r>    27.0986     1.5820    49.5238 </r>
       <r>    27.3025     1.6846    49.8672 </r>
       <r>    27.5064     2.9683    50.4724 </r>
       <r>    27.7102     3.0555    51.0953 </r>
       <r>    27.9141     2.3472    51.5738 </r>
       <r>    28.1180     2.3560    52.0542 </r>
       <r>    28.3219     2.3754    52.5384 </r>
       <r>    28.5257     2.9707    53.1441 </r>
       <r>    28.7296     1.9397    53.5395 </r>
       <r>    28.9335     2.2697    54.0023 </r>
       <r>    29.1374     2.5726    54.5267 </r>
       <r>    29.3412     2.7144    55.0802 </r>
       <r>    29.5451     3.6814    55.8307 </r>
       <r>    29.7490     2.7400    56.3893 </r>
       <r>    29.9529     2.6866    56.9370 </r>
       <r>    30.1567     1.9250    57.3295 </r>
       <r>    30.3606     2.8499    57.9105 </r>
       <r>    30.5645     2.2111    58.3613 </r>
       <r>    30.7683     1.9845    58.7659 </r>
       <r>    30.9722     1.2648    59.0237 </r>
       <r>    31.1761     1.5714    59.3441 </r>
       <r>    31.3800     1.5968    59.6696 </r>
       <r>    31.5838     2.2895    60.1364 </r>
       <r>    31.7877     2.7392    60.6949 </r>
       <r>    31.9916     2.1887    61.1411 </r>
       <r>    32.1955     1.9334    61.5353 </r>
       <r>    32.3993     1.8557    61.9136 </r>
       <r>    32.6032     2.2003    62.3622 </r>
       <r>    32.8071     1.6400    62.6965 </r>
       <r>    33.0110     1.6963    63.0424 </r>
       <r>    33.2148     2.3007    63.5114 </r>
       <r>    33.4187     2.3900    63.9987 </r>
       <r>    33.6226     2.2820    64.4639 </r>
       <r>    33.8265     2.0637    64.8847 </r>
       <r>    34.0303     2.7256    65.4403 </r>
       <r>    34.2342     2.6016    65.9707 </r>
       <r>    34.4381     2.5061    66.4817 </r>
       <r>    34.6420     2.9758    67.0883 </r>
       <r>    34.8458     2.1257    67.5217 </r>
       <r>    35.0497     1.5206    67.8317 </r>
       <r>    35.2536     1.8244    68.2037 </r>
       <r>    35.4574     2.3866    68.6903 </r>
       <r>    35.6613     2.2304    69.1450 </r>
       <r>    35.8652     1.5179    69.4544 </r>
       <r>    36.0691     2.4950    69.9631 </r>
       <r>    36.2729     2.6970    70.5130 </r>
       <r>    36.4768     2.6903    71.0614 </r>
       <r>    36.6807     2.0740    71.4843 </r>
       <r>    36.8846     2.2755    71.9482 </r>
       <r>    37.0884     2.1760    72.3918 </r>
       <r>    37.2923     2.6884    72.9399 </r>
       <r>    37.4962     2.3072    73.4103 </r>
       <r>    37.7001     1.9954    73.8171 </r>
       <r>    37.9039     2.5884    74.3448 </r>
       <r>    38.1078     1.8948    74.7311 </r>
       <r>    38.3117     2.1994    75.1795 </r>
       <r>    38.5156     2.1981    75.6276 </r>
       <r>    38.7194     2.0400    76.0435 </r>
       <r>    38.9233     2.3851    76.5298 </r>
       <r>    39.1272     2.4290    77.0250 </r>
       <r>    39.3311     2.3479    77.5037 </r>
       <r>    39.5349     2.7351    78.0613 </r>
       <r>    39.7388     2.3441    78.5392 </r>
       <r>    39.9427     1.6174    78.8689 </r>
       <r>    40.1465     2.0160    79.2799 </r>
       <r>    40.3504     0.8328    79.4497 </r>
       <r>    40.5543     0.7769    79.6081 </r>
       <r>    40.7582     0.4531    79.7005 </r>
       <r>    40.9620     0.4473    79.7917 </r>
       <r>    41.1659     0.2255    79.8377 </r>
       <r>    41.3698     0.1235    79.8628 </r>
       <r>    41.5737     0.0118    79.8652 </r>
       <r>    41.7775     0.2012    79.9063 </r>
       <r>    41.9814     0.1109    79.9289 </r>
       <r>    42.1853     0.0977    79.9488 </r>
       <r>    42.3892     0.1048    79.9702 </r>
       <r>    42.5930     0.0772    79.9859 </r>
       <r>    42.7969     0.0691    80.0000 </r>
       <r>    43.0008     0.0000    80.0000 </r>
       <r>    43.2047     0.0000    80.0000 </r>
       <r>    43.4085     0.0000    80.0000 </r>
       <r>    43.6124     0.0000    80.0000 </r>
       <r>    43.8163     0.0000    80.0000 </r>
       <r>    44.0202     0.0000    80.0000 </r>
       <r>    44.2240     0.0000    80.0000 </r>
       <r>    44.4279     0.0000    80.0000 </r>
       <r>    44.6318     0.0000    80.0000 </r>
       <r>    44.8356     0.0000    80.0000 </r>
       <r>    45.0395     0.0000    80.0000 </r>
       <r>    45.2434     0.0000    80.0000 </r>
       <r>    45.4473     0.0000    80.0000 </r>
      </set>
     </set>
    </array>
   </total>
  </dos>
 </calculation>
 <structure name="finalpos" >
  <crystal>
   <varray name="basis" >
    <v>       3.23137074       0.00000000       0.00000000 </v>
    <v>      -1.61568537       2.79844931       0.00000000 </v>
    <v>       0.00000000       0.00000000       5.25451983 </v>
   </varray>
   <i name="volume">     47.51571488 </i>
   <varray name="rec_basis" >
    <v>       0.30946619       0.17867038       0.00000000 </v>
    <v>       0.00000000       0.35734076       0.00000000 </v>
    <v>       0.00000000       0.00000000       0.19031235 </v>
   </varray>
  </crystal>
  <varray name="positions" >
   <v>       0.33333300       0.66666700       0.99896000 </v>
   <v>       0.66666700       0.33333300       0.49896000 </v>
   <v>       0.33333300       0.66666700       0.37604000 </v>
   <v>       0.66666700       0.33333300       0.87604000 </v>
  </varray>
 </structure>
</modeling>
