ITEM: TIMESTEP
10001000
ITEM: NUMBER OF ATOMS
12442
ITEM: BOX BOUNDS xy xz yz pp pp pp
0.0000000000000000e+00 7.2169560000000004e+01 0.0000000000000000e+00
0.0000000000000000e+00 7.2169560000000004e+01 0.0000000000000000e+00
0.0000000000000000e+00 7.2169560000000004e+01 0.0000000000000000e+00
ITEM: ATOMS id element mass type x y z fx fy fz vx vy vz c_pe
1 Ge 72.64 1 66.5521 8.8409 27.0514 0.0817312 -0.131591 0.380009 4.84468 -0.275041 1.4205 -4.50548
2 Ge 72.64 1 63.3937 12.2647 62.9775 0.0597951 -0.403298 0.131589 2.06821 -4.48309 -2.74741 -4.55091
3 Ge 72.64 1 69.4216 30.2316 3.15261 0.176715 0.0790209 -0.130147 3.61781 -2.52402 2.80642 -4.70679
4 Ge 72.64 1 5.43281 51.1898 63.2262 0.394071 0.135108 0.349527 -11.3896 -0.718487 6.09071 -4.56531
5 Ge 72.64 1 24.2101 54.2163 60.0701 -0.0740922 -0.204363 0.0432094 0.9211 3.89106 4.58899 -4.54453
6 Ge 72.64 1 42.084 20.8299 45.5926 -0.339629 0.454002 -0.501719 -1.31975 2.25373 4.45689 -4.73173
7 Ge 72.64 1 11.9713 11.645 48.2136 -0.513173 0.207168 0.381104 1.48414 -2.23462 -1.56634 -4.53234
8 Ge 72.64 1 53.8371 39.2876 44.8075 0.499993 -0.75574 1.19355 1.51073 3.74466 0.520928 -4.82939
9 Ge 72.64 1 57.1169 63.0075 60.0525 0.432162 -0.240845 -0.445196 -1.75178 -2.81676 -0.301041 -4.6673
10 Ge 72.64 1 59.949 3.00116 38.9039 -0.29629 0.57672 0.152981 -1.55976 -3.31481 -0.0745209 -4.71845
11 Ge 72.64 1 2.88154 3.44073 11.6242 0.123804 -0.541032 0.332204 -1.93226 3.26092 0.138254 -4.72483
12 Ge 72.64 1 38.9526 8.84516 60.2175 -0.138822 0.185175 0.095214 2.52363 -0.826004 -3.18666 -4.69353
13 Ge 72.64 1 18.0412 30.0642 36.1168 -0.0763065 0.543129 0.214126 0.502731 -2.14528 0.642636 -4.73659
14 Ge 72.64 1 69.2949 18.0446 21.3267 -1.21475 0.583751 -0.250004 0.321909 -2.62622 -2.57457 -4.7455
15 Ge 72.64 1 71.782 50.8629 20.6495 0.761916 0.377966 0.436383 0.797163 -6.33664 1.82868 -4.63336
16 Ge 72.64 1 54.3543 36.3454 72.1178 0.505998 -0.287824 -0.0621965 -2.27061 3.52804 1.60153 -4.54883
17 Ge 72.64 1 62.6585 18.3202 9.45926 -0.188172 -0.618248 0.387602 -0.378627 3.45676 3.15052 -4.7156
18 Ge 72.64 1 42.7446 60.4971 6.04127 -0.25937 0.224724 0.0790422 2.60592 -1.89342 -0.604581 -4.87951
19 Ge 72.64 1 36.284 9.07035 69.1822 -0.390955 -0.082465 0.156862 -1.91845 -1.7832 5.1102 -4.74677
20 Ge 72.64 1 57.3445 23.5668 68.7648 0.0846242 1.11363 -0.269532 0.352534 5.19233 1.60332 -4.82109
21 Ge 72.64 1 36.221 24.4121 60.3503 -0.199395 -0.350441 -0.588037 -2.88198 3.80684 0.521663 -4.76194
22 Ge 72.64 1 14.7898 33.0413 18.1839 0.309841 -0.318851 -0.101446 -4.49622 1.08689 -1.29306 -4.57355
23 Ge 72.64 1 66.3202 27.3016 39.4386 0.455803 -0.126012 -0.553419 -1.60159 -0.402185 -3.30034 -4.67425
24 Ge 72.64 1 17.8085 44.7968 63.2658 0.0399252 -0.0198439 0.149032 -3.05486 3.79611 1.72625 -4.69011
25 Ge 72.64 1 29.965 11.8027 66.6705 0.0294826 0.334114 -0.933178 -0.305064 -1.45528 2.25621 -4.57965
26 Ge 72.64 1 26.5578 18.3524 38.259 0.650305 -0.094717 0.0959743 -1.63714 0.299162 1.15848 -4.67564
27 Ge 72.64 1 8.77 35.9819 26.7381 -0.0415169 -0.17483 -0.288253 -1.45506 -5.57321 -0.492823 -4.47941
28 Ge 72.64 1 30.3336 56.8137 38.9945 -0.200884 -0.45429 0.276371 2.06779 0.0234789 -2.81826 -4.59719
29 Ge 72.64 1 45.1961 38.8899 35.9886 -0.323183 -0.485985 0.41089 -3.25175 -2.82496 -0.70535 -4.76652
30 Ge 72.64 1 36.9302 54.1057 54.3442 -0.620247 -0.138817 -0.397388 1.95791 3.91523 2.66712 -4.73666
31 Ge 72.64 1 66.7919 63.4306 69.8908 -0.226047 -0.226709 -0.24178 -1.11405 -1.2941 5.14297 -4.52185
32 Ge 72.64 1 8.58887 66.6532 8.95096 0.265546 0.0265277 0.534362 -4.73101 3.39933 -3.7035 -4.45903
33 Ge 72.64 1 15.0703 30.5723 68.4518 -0.00873456 -0.349002 0.146105 4.57578 3.70493 0.794651 -4.47729
34 Ge 72.64 1 68.717 24.3493 32.8879 -0.303758 0.0114568 0.472486 3.11774 3.14291 0.885176 -4.68942
35 Ge 72.64 1 41.8596 17.9333 36.3123 -0.227564 0.0179406 -0.175435 4.64218 -0.680152 -2.73161 -4.54643
36 Ge 72.64 1 48.2862 35.8255 0.351667 0.14256 0.278195 -0.611434 -4.21246 3.49792 -1.05981 -4.71708
37 Ge 72.64 1 45.0355 68.9348 42.3844 0.421957 0.406499 -0.146729 -4.17633 1.15632 -2.34346 -4.59502
38 Ge 72.64 1 66.3412 38.9057 8.84885 0.224595 0.305408 0.339498 -2.27452 -3.58938 0.158163 -4.87167
39 Ge 72.64 1 65.9882 35.2491 48.685 -0.211228 0.567982 0.319124 2.3141 4.83102 1.47944 -4.80077
40 Ge 72.64 1 -0.0118116 0.298534 18.2731 0.00721249 -0.718579 -0.0375176 -2.49771 0.0531125 1.40233 -4.61073
41 Ge 72.64 1 59.6104 14.8339 8.81796 -0.311023 0.19819 0.0626689 -5.57182 2.19044 -0.151285 -4.44087
42 Ge 72.64 1 38.8558 14.9187 30.3101 0.220256 -0.0667209 -0.525385 2.08099 1.19147 -1.78172 -4.57194
43 Ge 72.64 1 5.75579 6.45223 36.561 0.812175 0.138457 -0.296666 4.32709 -0.813857 2.71071 -4.67075
44 Ge 72.64 1 30.2576 14.8566 45.2889 0.283666 0.08589 0.115056 -5.09149 -2.84376 2.50344 -4.58352
45 Ge 72.64 1 32.8474 33.0842 42.1147 0.0830431 -0.0505419 0.750414 0.89569 -2.44103 2.37792 -4.71865
46 Ge 72.64 1 15.1386 15.1296 23.8144 -0.507931 -0.905039 0.121038 2.73118 -0.703948 4.32728 -4.76937
47 Ge 72.64 1 8.59213 48.4872 63.258 0.547561 -0.943018 -0.0927374 4.72654 -2.26055 2.86171 -4.62457
48 Ge 72.64 1 56.8111 15.3965 60.1356 -0.0932103 0.0846189 0.655553 1.04708 3.32217 -8.64713 -4.51906
49 Ge 72.64 1 30.242 32.8868 9.20863 -0.157546 0.254899 -0.00615828 -1.8038 -0.219021 -3.16768 -4.27287
50 Ge 72.64 1 69.2344 20.9066 71.9187 -0.526693 0.21829 -0.310279 0.925122 -4.60846 0.750012 -4.66255
51 Ge 72.64 1 54.1723 6.10563 18.0867 0.461578 -0.0195426 -0.352866 -4.64746 -1.43672 2.13013 -4.67776
52 Ge 72.64 1 69.1822 41.8139 27.416 0.378823 0.226481 -0.589949 -2.53979 -3.16147 -0.847679 -4.64902
53 Ge 72.64 1 63.2332 53.9165 9.04143 0.287835 0.434828 -0.0635726 -2.53495 4.44522 0.938852 -4.69437
54 Ge 72.64 1 23.6489 45.0714 33.2186 -0.184391 0.0183244 -0.329713 1.68087 8.54197 -3.69745 -4.46128
55 Ge 72.64 1 17.7276 20.827 50.8209 0.505267 0.407012 0.109962 0.645915 -1.43737 0.519669 -4.85304
56 Ge 72.64 1 9.20075 32.7744 30.4815 -0.98689 -0.257129 -1.05698 3.5924 0.73236 -0.616097 -4.59565
57 Ge 72.64 1 3.19654 51.4859 5.81711 -0.227688 -0.828988 -0.0258266 1.96433 -1.35857 3.86188 -4.55566
58 Ge 72.64 1 63.5116 53.9952 15.0535 -1.45346 0.186858 0.203229 -5.17899 -0.396635 2.5922 -4.51984
59 Ge 72.64 1 0.471674 60.2324 35.8852 0.219378 -0.0227682 -0.443985 1.98339 5.47285 0.309499 -4.49762
60 Ge 72.64 1 30.1611 8.94621 51.141 -0.398367 -0.0379244 -0.059873 1.04342 -1.05161 -3.25455 -4.80165
61 Ge 72.64 1 36.2357 36.3286 12.1065 -0.255295 -0.164879 -0.113913 -1.38924 1.56375 3.594 -4.77873
62 Ge 72.64 1 26.6239 42.2729 33.2436 0.0672776 -0.195221 0.154812 4.96936 -4.85333 -2.48103 -4.59817
63 Ge 72.64 1 12.3585 3.14161 63.1629 -0.283212 -0.285319 -0.372959 -0.272603 0.175029 -1.24665 -4.80601
64 Ge 72.64 1 57.3347 39.2052 54.6389 -0.249637 0.329602 0.0639068 3.18266 2.53051 1.92635 -4.83051
65 Ge 72.64 1 33.2223 48.4557 20.8941 0.00166977 0.430511 -0.26115 0.387127 1.55173 5.65908 -4.58546
66 Ge 72.64 1 33.2251 24.333 8.97587 -0.126294 -0.404026 -0.7423 0.522391 -1.17114 -4.60507 -4.73496
67 Ge 72.64 1 30.0608 12.374 23.7341 -0.494938 -0.791898 0.611323 1.80408 -0.149182 -3.6833 -4.67591
68 Ge 72.64 1 32.8646 51.1842 12.3461 -0.62398 0.877632 0.179472 -0.956431 -0.917874 -5.37265 -4.56866
69 Ge 72.64 1 62.9181 66.558 57.2588 0.024211 -0.185448 -0.628978 -2.17162 2.48736 0.859387 -4.50808
70 Ge 72.64 1 3.46679 57.0852 30.215 -0.73314 -0.194368 -0.041725 0.232064 1.46596 6.1168 -4.59083
71 Ge 72.64 1 36.0716 5.92503 0.152085 0.140686 0.251802 -0.209635 -3.14478 -1.84074 -2.40027 -4.77848
72 Ge 72.64 1 56.7325 3.04446 30.0255 -0.355927 -0.49951 0.629317 -4.91853 1.72136 -4.31324 -4.86689
73 Ge 72.64 1 50.6136 38.8107 12.5227 0.116132 -0.305018 -0.20454 -0.374636 -2.41002 -1.3537 -4.78226
74 Ge 72.64 1 72.1522 57.5177 21.0609 0.0855853 -0.729535 0.0183466 1.25163 3.54423 5.04392 -4.55974
75 Ge 72.64 1 60.386 6.13572 60.4327 -0.596162 -0.0822465 0.0650514 -4.1841 -2.77252 -0.606088 -4.79724
76 Ge 72.64 1 65.9614 45.1375 15.0971 -0.0207636 0.0780406 -0.440723 4.52187 -0.848378 -2.60983 -4.5956
77 Ge 72.64 1 45.237 51.545 17.6161 -0.222962 0.198841 -0.0494761 -1.54192 1.75577 -2.10369 -4.717
78 Ge 72.64 1 57.6823 66.2694 33.4658 -0.130965 0.0648351 -0.0114435 -5.01057 9.02107 3.56506 -4.62158
79 Ge 72.64 1 24.4842 8.62701 15.235 -1.66546 -0.165624 -0.7603 -7.25748 1.3108 -7.17722 -4.56924
80 Ge 72.64 1 35.6981 5.72171 42.2371 0.424355 0.465247 -0.201822 -5.25353 -4.36329 4.64422 -4.48402
81 Ge 72.64 1 9.0586 56.957 29.7432 0.194479 0.294396 0.3791 -1.10416 4.25834 -3.49914 -4.60203
82 Ge 72.64 1 32.7351 27.2234 36.368 0.339861 -0.0776516 -0.278608 -3.44902 4.78758 1.61344 -4.74738
83 Ge 72.64 1 18.0728 36.2362 24.0397 -0.0804769 -0.400233 0.382306 1.95898 -2.87743 -3.22833 -4.52712
84 Ge 72.64 1 59.7871 30.5085 23.8514 -0.135294 0.105717 0.359419 -2.40778 1.62207 1.14564 -4.75761
85 Ge 72.64 1 12.0917 62.7772 38.884 0.244016 0.277456 0.673356 2.13693 0.54181 -0.223209 -4.68728
86 Ge 72.64 1 27.2059 45.5427 12.0355 -0.51444 0.134137 -0.161433 2.66423 1.30559 0.756667 -4.80749
87 Ge 72.64 1 42.0743 54.1481 23.6837 0.174736 -0.193456 -0.0838689 -3.76905 -0.925007 -6.47211 -4.62848
88 Ge 72.64 1 24.214 63.4223 20.8483 0.180732 0.127902 0.243907 -1.22113 2.6229 -1.51225 -4.75426
89 Ge 72.64 1 32.8315 26.6047 54.0254 0.149039 0.949685 -0.631405 1.12275 -2.09181 -1.10883 -4.65954
90 Ge 72.64 1 27.2377 50.9153 66.2122 0.412855 -0.248879 -0.041791 0.00955218 -1.31747 -3.07745 -4.71255
91 Ge 72.64 1 17.8489 5.65198 71.8824 0.504088 0.952397 0.449668 2.56878 1.59662 -2.07438 -4.63093
92 Ge 72.64 1 38.9465 17.9313 62.7032 -0.0590142 0.172444 -0.109373 -0.416219 1.13704 -2.28967 -4.67558
93 Ge 72.64 1 27.2312 9.18067 36.3353 -0.169974 -0.151064 -0.417105 -0.401557 -3.23924 -5.48049 -4.6972
94 Ge 72.64 1 11.7583 27.5365 2.97093 -0.346952 -1.10873 -0.158507 -0.732728 -2.38513 -0.573051 -4.74573
95 Ge 72.64 1 41.5213 47.9987 17.9067 0.111651 0.171658 0.174317 -2.55101 3.14737 -1.10827 -4.66379
96 Ge 72.64 1 68.944 66.2055 21.0477 -0.200449 0.146576 0.060888 -0.587144 1.99718 0.268402 -4.58918
97 Ge 72.64 1 60.3 36.3261 30.2063 -0.397345 -0.851755 -0.544285 -4.9157 6.21678 1.36659 -4.75723
98 Ge 72.64 1 54.3384 42.8457 36.2099 0.19344 -0.562925 0.116601 1.37553 4.17838 -2.79658 -4.6451
99 Ge 72.64 1 48.4442 69.2618 15.3524 -0.249492 0.589167 -0.206648 -3.98215 0.506435 -3.79141 -4.57001
100 Ge 72.64 1 8.93771 11.7593 45.442 0.182218 0.250291 -0.448224 1.26888 -4.12781 1.00521 -4.75201
101 Ge 72.64 1 6.29379 33.0559 8.80882 -0.123912 0.14087 0.0451806 4.0066 -2.04409 -1.20672 -4.83194
102 Ge 72.64 1 26.6815 69.1723 36.4577 0.0588003 0.101885 -0.15245 -6.08598 -0.37179 -1.17079 -4.68828
103 Ge 72.64 1 30.0213 44.8979 20.6651 -0.225709 0.272542 0.441267 -1.16932 -2.67512 0.780663 -4.58624
104 Ge 72.64 1 23.7435 30.4479 6.11949 0.219992 0.231269 -0.0762982 -0.651658 1.27742 -1.63052 -4.63029
105 Ge 72.64 1 50.7479 26.766 30.2517 0.0023825 -0.201025 0.0949726 0.888875 -3.89503 -4.2166 -4.60898
106 Ge 72.64 1 21.1846 3.25585 24.4449 -0.390186 -0.61558 -0.251222 3.36186 4.19129 4.25697 -4.47442
107 Ge 72.64 1 6.23018 48.0774 41.8414 -0.722661 0.268893 0.685955 0.0655871 3.89783 -0.961863 -4.7671
108 Ge 72.64 1 57.105 30.4848 68.8582 0.339989 -0.560351 -0.161139 -0.575802 2.93605 0.423541 -4.74977
109 Ge 72.64 1 30.0217 39.1977 63.5634 0.41068 -0.346714 -0.133428 1.8514 0.307727 1.39617 -4.6918
110 Ge 72.64 1 24.056 66.0403 23.7212 0.437705 0.0787297 0.254573 -0.531792 2.24039 2.39849 -4.84464
111 Ge 72.64 1 69.8596 51.0929 47.6145 -0.743401 1.31413 0.529207 -1.06708 -3.10666 -5.43633 -4.59128
112 Ge 72.64 1 12.0433 57.0397 57.2556 -0.571576 -0.448404 -0.312004 -7.87705 -0.567296 -2.27461 -4.66863
113 Ge 72.64 1 60.0076 21.29 27.3012 0.321068 -0.364856 0.153115 -2.95821 -2.35859 -0.256133 -4.51277
114 Ge 72.64 1 33.2487 33.2995 66.4371 0.0352876 -0.754654 -0.28971 1.41158 3.7186 -0.483018 -4.66224
115 Ge 72.64 1 44.8608 0.158542 15.2998 0.357842 0.321695 0.15713 -4.89807 0.189975 -5.3822 -4.69779
116 Ge 72.64 1 27.2278 38.5295 36.5419 0.255542 0.921014 -0.208828 -1.03247 -2.05138 -2.56476 -4.54424
117 Ge 72.64 1 18.3449 68.8072 56.9829 0.668695 0.156219 -0.179194 0.593606 -3.73224 0.897327 -4.65029
118 Ge 72.64 1 63.5927 62.9145 0.361225 0.158025 0.27787 -0.480737 3.15333 -4.32845 -2.94666 -4.62762
119 Ge 72.64 1 3.1623 32.91 42.1561 -0.381146 0.0351567 -0.165316 -0.0897476 0.840679 3.4163 -4.76127
120 Ge 72.64 1 45.3008 51.4134 30.1604 0.458084 -0.541942 -0.45548 -4.8735 -3.21568 -3.1397 -4.69241
121 Ge 72.64 1 66.5044 57.1869 14.7341 -0.422778 0.185271 0.143003 0.0487344 2.07089 -1.918 -4.51229
122 Ge 72.64 1 39.2295 53.8615 45.1066 -0.0433589 0.672896 0.0222895 1.37558 -3.46762 0.582871 -4.60364
123 Ge 72.64 1 60.2469 66.5632 66.5729 -0.32953 0.20865 -0.259263 6.033 -2.93998 1.56261 -4.83415
124 Ge 72.64 1 45.2847 3.34702 54.344 0.228548 -0.636037 -0.242258 5.02669 7.15141 -0.435314 -4.72263
125 Ge 72.64 1 57.0428 30.4249 45.3545 -0.283904 -0.515741 -1.39771 0.208214 3.39489 -3.77555 -4.80043
126 Ge 72.64 1 36.0011 60.3542 24.1549 -0.375466 -0.565018 -0.190763 1.66555 -1.77912 0.727036 -4.90061
127 Ge 72.64 1 48.3453 47.8036 54.5768 0.129196 0.266907 -0.145198 1.4341 -3.08676 0.337086 -4.64921
128 Ge 72.64 1 21.0052 39.1093 18.0858 0.0385806 -0.321951 0.111052 4.01986 -3.37469 -5.91195 -4.44778
129 Ge 72.64 1 39.4645 54.249 20.8369 0.0715069 -0.129445 0.226971 1.06922 0.189669 -0.14779 -4.66461
130 Ge 72.64 1 38.9465 5.72902 63.3929 0.108979 0.437727 -0.118566 1.64267 -0.207556 3.6803 -4.71315
131 Ge 72.64 1 6.4147 0.399584 35.7942 -0.948379 -0.587742 0.244757 2.11787 2.34461 -2.86527 -4.74842
132 Ge 72.64 1 5.60808 60.2888 5.83676 0.714419 -0.577316 0.771264 1.00823 1.9085 -3.94832 -4.67468
133 Ge 72.64 1 23.8067 2.85117 3.22834 -0.824147 0.691634 -0.40472 -0.30365 -3.34304 3.14781 -4.67961
134 Ge 72.64 1 29.9094 68.9677 20.9639 0.505478 0.524062 0.642718 0.783571 -1.09056 3.53364 -4.60624
135 Ge 72.64 1 63.5224 17.9414 63.1501 -0.207664 0.247692 -0.172558 -3.10207 1.44502 4.072 -4.61912
136 Ge 72.64 1 24.1076 30.4015 66.4568 -0.21909 -0.860556 -0.315173 1.64569 2.22091 3.20646 -4.67285
137 Ge 72.64 1 36.5589 62.8673 32.9532 -0.254479 0.11085 1.12175 1.19687 2.87475 4.54493 -4.6195
138 Ge 72.64 1 3.1378 48.5567 63.0355 -0.506957 -0.481226 0.0230513 1.02165 -4.5867 0.959079 -4.56031
139 Ge 72.64 1 32.9869 29.9289 20.8096 -0.240573 0.522334 -0.0789826 -2.05314 -0.425341 -5.07888 -4.61284
140 Ge 72.64 1 65.9135 3.78552 62.8648 0.566727 -0.567399 0.432096 0.497134 1.13369 3.09306 -4.81177
141 Ge 72.64 1 11.1502 69.1439 27.1482 -0.242087 -0.304791 0.697985 -5.07901 -1.73188 1.18139 -4.76958
142 Ge 72.64 1 35.9637 21.2478 3.3432 0.356662 0.356251 -0.258828 0.829423 -0.103531 -5.28843 -4.586
143 Ge 72.64 1 29.3133 26.7111 45.1134 1.34639 -0.240871 -0.0485503 -4.10668 1.12202 -3.17 -4.63368
144 Ge 72.64 1 39.4492 33.1038 48.1601 -0.614476 0.23701 0.631058 -1.08249 -1.19718 0.0632042 -4.70566
145 Ge 72.64 1 32.9146 27.0444 29.7551 0.0436737 -0.37278 -0.121332 1.62513 -2.80093 2.84043 -4.48262
146 Ge 72.64 1 35.8944 69.3571 15.1778 -0.444697 0.0939289 0.194952 -1.98416 -2.68408 -1.72661 -4.65457
147 Ge 72.64 1 48.0444 66.4435 35.9657 0.629935 -0.253969 0.423728 -1.15946 -2.75788 -1.05861 -4.71132
148 Ge 72.64 1 2.90718 14.4823 23.858 0.20687 -0.0972381 0.835521 0.468071 1.19806 0.402913 -4.63824
149 Ge 72.64 1 6.29921 53.84 60.2156 -0.421799 0.324157 -0.0583361 3.25646 1.2385 -1.57945 -4.52044
150 Ge 72.64 1 8.70324 9.12769 18.0402 0.747892 0.420154 0.642713 -0.870253 -0.342857 3.26035 -4.63016
151 Ge 72.64 1 63.4549 47.9929 15.0135 -0.312063 0.250793 0.0264581 -1.59568 -1.98146 -1.76325 -4.65331
152 Ge 72.64 1 0.0921156 35.7826 0.0421234 0.427506 0.0330371 0.429619 0.934553 0.803138 -3.08142 -4.52287
153 Ge 72.64 1 48.0937 68.828 69.4147 -0.384386 0.360952 -0.022629 0.319371 4.05913 -4.19793 -4.85083
154 Ge 72.64 1 11.9677 8.91375 63.3473 -0.0322905 0.129183 -0.158787 3.11153 4.3151 -1.29143 -4.52829
155 Ge 72.64 1 42.9104 54.0643 60.1599 -1.49206 -0.577842 -0.744907 2.83998 -1.01731 -7.96273 -4.73951
156 Ge 72.64 1 45.3012 51.1645 54.2359 0.0506796 0.009047 -0.0322651 -2.33471 0.156288 3.04543 -4.60089
157 Ge 72.64 1 38.9951 17.5251 45.5033 0.00242753 0.828959 0.858627 2.19022 -5.0299 5.83027 -4.844
158 Ge 72.64 1 27.2769 30.2021 14.9046 -0.157691 -0.0359082 0.246284 0.956567 2.26209 -2.781 -4.76162
159 Ge 72.64 1 33.0987 69.5206 17.7946 0.392929 -0.71152 0.300912 -2.72999 1.15058 2.82904 -4.80631
160 Ge 72.64 1 5.94701 71.6928 54.2305 -0.303773 -0.227581 -0.228517 3.79859 0.798613 0.059285 -4.61851
161 Ge 72.64 1 57.2422 63.686 30.07 0.00979378 -0.0257341 0.257237 -1.54695 -2.86827 1.89406 -4.56062
162 Ge 72.64 1 21.2033 69.1753 48.0331 0.280587 0.390007 0.319082 0.735087 2.47048 -3.77014 -4.76495
163 Ge 72.64 1 3.17634 54.3481 63.0809 -0.139378 0.186088 0.137764 -4.69544 -1.32958 -4.52794 -4.63124
164 Ge 72.64 1 69.0068 3.33772 59.99 0.69391 0.387384 0.710139 1.66854 -1.29884 3.87306 -4.74439
165 Ge 72.64 1 11.8998 20.9385 15.1201 -0.127314 -0.332772 0.248926 -1.03579 0.575408 2.59369 -4.63734
166 Ge 72.64 1 57.1288 18.9107 39.4458 -0.196992 -0.910092 0.0502978 1.98657 1.6032 2.38249 -4.75821
167 Ge 72.64 1 62.79 2.92879 35.7448 0.0916038 0.556746 0.271537 0.626739 -1.22648 -0.0585009 -4.65668
168 Ge 72.64 1 23.6675 20.9009 21.0431 0.00178599 0.926059 -0.0844797 2.8319 -2.17322 0.448017 -4.76642
169 Ge 72.64 1 14.2573 56.3631 60.3692 1.23382 0.0821789 -0.222487 0.528786 0.853735 1.85825 -4.53399
170 Ge 72.64 1 24.4318 14.8542 57.0621 0.144963 -0.0131694 -0.130779 -5.2595 -5.82614 -1.90103 -4.70788
171 Ge 72.64 1 47.4691 11.7525 41.6697 0.341421 -0.0764757 0.282064 2.21901 0.219864 2.35729 -4.6107
172 Ge 72.64 1 15.1334 5.80964 51.1487 0.0228671 -0.116241 0.298432 -0.600459 2.39481 0.810534 -4.73982
173 Ge 72.64 1 48.2548 18.7768 48.5372 0.233018 0.0536474 -0.273059 -3.61857 -0.0344536 4.86344 -4.6712
174 Ge 72.64 1 51.032 69.5763 71.8262 -0.286567 -0.88132 -0.315237 -2.53483 2.85097 -1.39027 -4.66329
175 Ge 72.64 1 2.86751 27.0354 47.6575 -0.231037 0.181007 0.632567 0.0207191 0.68204 -0.274508 -4.87829
176 Ge 72.64 1 15.0919 66.2519 38.9974 -0.105481 -0.334974 0.458286 -0.295569 -0.277534 0.61815 -4.59977
177 Ge 72.64 1 51.5321 51.4117 30.4485 -0.842658 0.310075 0.286932 -2.00613 -1.54508 0.424535 -4.71159
178 Ge 72.64 1 3.24717 63.0682 29.7645 -0.38867 0.244733 -0.324999 0.545469 2.73255 -3.3818 -4.5797
179 Ge 72.64 1 17.9321 15.2604 68.8598 0.641654 -0.48435 -0.44231 -2.00066 1.6489 0.00136951 -4.70662
180 Ge 72.64 1 36.072 59.8006 60.2611 -0.134581 0.334547 -0.496386 2.81745 0.710283 -0.881451 -4.52261
181 Ge 72.64 1 29.5642 12.2874 30.369 0.509436 0.0370781 -0.343468 -1.39361 -4.77001 -0.660509 -4.64274
182 Ge 72.64 1 30.2173 48.5054 71.5538 -0.0904248 -0.551143 0.478909 6.00798 -2.36902 -2.60902 -4.56028
183 Ge 72.64 1 36.5599 56.9838 8.95503 -0.425516 -0.0316942 0.387986 0.878072 -6.65916 -1.02209 -4.56978
184 Ge 72.64 1 36.8212 39.0044 63.0386 0.35617 0.218804 0.255087 -6.98828 2.03581 -0.42343 -4.76403
185 Ge 72.64 1 41.7904 30.6759 54.471 0.591494 -0.370156 -0.417142 -7.23885 -0.247097 3.30357 -4.44165
186 Ge 72.64 1 35.6142 45.4629 2.88569 0.876849 -0.492627 0.429977 -4.55088 -5.67823 -5.34601 -4.53759
187 Ge 72.64 1 21.1635 36.5971 8.89201 0.154884 -0.346692 -0.123235 2.27763 3.81218 -1.7102 -4.86844
188 Ge 72.64 1 26.7843 33.5386 11.9266 -0.00731401 -1.27128 0.0755178 -1.56784 8.22538 2.96661 -4.77885
189 Ge 72.64 1 63.0815 42.296 69.2168 0.0987697 -0.0757137 0.0915969 -1.13521 -4.34692 -3.15537 -4.68183
190 Ge 72.64 1 -0.20734 27.3184 27.1072 -0.0632289 -0.237099 -0.11784 -6.31547 -3.13539 2.59539 -4.60017
191 Ge 72.64 1 20.8687 65.9864 27.2357 0.146977 0.239544 0.0670185 -2.31579 -1.5061 1.11213 -4.60483
192 Ge 72.64 1 41.7348 48.194 24.7698 0.360172 0.000560273 0.0013823 -1.83489 -0.26001 0.376925 -4.63421
193 Ge 72.64 1 72.0332 17.7162 66.3842 -0.145611 0.791408 -0.360121 2.0333 0.20766 -1.27412 -4.59155
194 Ge 72.64 1 66.3903 15.9674 21.0339 -0.455501 -0.69492 -0.12 1.29867 0.669996 -3.7115 -4.56952
195 Ge 72.64 1 3.27463 12.3775 27.1883 -0.329194 -0.20738 -0.69455 -0.404748 -2.08062 -2.09049 -4.8343
196 Ge 72.64 1 57.3905 -0.34625 21.5255 -0.517756 0.77841 -0.0287508 -0.544941 -6.44557 1.37021 -4.74908
197 Ge 72.64 1 30.3954 27.1317 56.6732 -0.347975 -0.24316 0.228094 -1.63504 3.19858 -2.47202 -4.66957
198 Ge 72.64 1 63.3146 45.2847 66.1173 -0.377341 0.0938568 0.256704 -1.11785 -0.715536 -2.8294 -4.66583
199 Ge 72.64 1 26.9145 69.0623 18.6562 -0.362946 0.322967 -1.51281 -1.16281 0.627655 2.00009 -4.69545
200 Ge 72.64 1 33.8031 12.3366 45.5282 -0.311609 -0.464408 -0.204241 -2.19161 1.34451 1.20536 -4.74918
201 Ge 72.64 1 51.5994 69.4571 54.3382 -0.665921 0.0527285 0.122219 3.49654 -0.860139 -3.12875 -4.6681
202 Ge 72.64 1 47.8874 15.0723 69.2314 0.272407 -0.100373 0.112555 1.71731 -0.961664 1.17792 -4.51326
203 Ge 72.64 1 63.9558 32.668 0.42927 -0.713739 -0.0960845 -1.42339 1.04255 2.14175 -2.08373 -4.38327
204 Ge 72.64 1 42.1478 0.0861188 48.3481 -0.297421 0.120046 -0.0447691 2.26612 -0.695939 0.944311 -4.73904
205 Ge 72.64 1 20.1858 30.2776 8.69085 0.606981 -0.0247771 -0.0591201 -4.32606 2.66073 -2.14241 -4.50474
206 Ge 72.64 1 39.1854 23.7771 21.2669 -0.0479289 -0.16518 0.0233484 3.25495 -8.05124 -2.70643 -4.8181
207 Ge 72.64 1 53.7992 42.724 30.2814 0.576644 -0.573446 -0.203685 1.64092 1.62437 -0.448672 -4.62432
208 Ge 72.64 1 36.4077 65.9359 30.2588 -0.495774 -0.0794631 -0.393101 1.95603 0.803679 -0.905227 -4.48131
209 Ge 72.64 1 39.2232 56.8833 30.35 0.0552322 0.207957 -0.724996 0.546081 1.1394 6.14204 -4.8105
210 Ge 72.64 1 30.1809 2.88145 27.0133 -0.162237 1.31192 0.301115 -0.0663721 0.873239 1.52231 -4.69244
211 Ge 72.64 1 2.74243 30.237 33.1201 -0.189001 -0.350154 0.117686 -2.75153 1.29359 -4.76509 -4.71172
212 Ge 72.64 1 2.91605 23.9149 62.9581 -0.31219 -0.509502 0.151209 2.37125 -1.41294 -3.25715 -4.74557
213 Ge 72.64 1 68.7114 30.4463 27.1243 1.16476 0.310876 0.11003 -1.82991 1.48292 -1.13836 -4.49265
214 Ge 72.64 1 62.4919 0.148793 26.653 0.148136 0.103974 -0.311779 -1.89686 -6.65687 0.560743 -4.70822
215 Ge 72.64 1 45.1014 18.4806 50.8546 -0.275319 0.0569094 -0.285477 1.33938 -1.06759 2.84391 -4.74997
216 Ge 72.64 1 50.6322 3.17908 65.7859 0.0452772 -0.473279 0.985555 -1.99119 2.06772 3.84275 -4.66283
217 Ge 72.64 1 8.89427 33.1803 41.9773 0.0393821 -0.282723 -0.227099 0.287548 -3.80433 1.34966 -4.79141
218 Ge 72.64 1 66.2244 30.7315 65.8449 -0.355209 -0.916409 -0.0404156 -1.63388 -4.1265 3.34606 -4.59768
219 Ge 72.64 1 33.7255 63.8355 54.0406 -0.0669333 -0.828549 -0.184056 -0.601482 5.1231 -1.94073 -4.6284
220 Ge 72.64 1 39.4184 50.8558 53.885 0.316662 0.55352 -0.132861 1.3478 2.14406 0.297598 -4.9074
221 Ge 72.64 1 18.0245 48.0555 65.9829 0.132548 0.205037 -0.199834 -3.36062 1.52433 4.00546 -4.70906
222 Ge 72.64 1 11.6319 69.4684 9.0511 -0.106832 0.00118765 -0.0854694 -5.39119 1.6184 4.39401 -4.62764
223 Ge 72.64 1 15.1331 53.8438 27.1048 -0.0135198 0.262969 0.633681 -2.88711 -7.50785 0.344998 -4.72577
224 Ge 72.64 1 57.3961 48.3343 38.7227 -0.0392153 -0.0663919 0.198658 -3.86947 -1.62365 -2.75582 -4.78133
225 Ge 72.64 1 56.9311 36.1577 15.3528 0.0525442 -0.143636 -0.681107 0.826105 -5.07157 -1.90393 -4.69857
226 Ge 72.64 1 35.8872 26.97 51.2967 -0.134665 -0.543282 0.744073 2.91923 5.30196 -2.41105 -4.8224
227 Ge 72.64 1 21.1119 39.1757 6.32625 -0.674724 0.204376 -0.201761 3.47853 -2.35496 3.63469 -4.85512
228 Ge 72.64 1 29.3382 39.3563 56.9947 0.700367 0.278831 0.825061 -0.547505 0.173951 0.555247 -4.74942
229 Ge 72.64 1 48.0452 8.9091 21.0275 -0.210623 0.289055 -0.295562 0.788015 -3.28889 -2.72032 -4.70414
230 Ge 72.64 1 32.6976 24.126 45.0751 -0.493152 -0.219266 0.0575366 0.513198 1.58541 4.12195 -4.59045
231 Ge 72.64 1 3.23732 24.3311 57.1951 -0.588717 -0.376631 -0.219595 -0.258258 -1.37267 3.03067 -4.70059
232 Ge 72.64 1 45.4128 23.8615 3.12936 -0.660685 -0.110376 0.231393 -2.73886 -2.20324 1.49353 -4.74449
233 Ge 72.64 1 11.7269 42.2278 18.0722 -0.555948 -0.18094 -0.531946 -5.8778 0.886056 3.27672 -4.50625
234 Ge 72.64 1 26.8985 69.3273 60.2151 0.86776 0.267147 -0.214251 -2.86493 1.08049 -1.17409 -4.66458
235 Ge 72.64 1 48.0219 45.0461 3.03171 -0.089719 -0.550987 -0.742322 0.308046 0.341483 -3.56522 -4.60509
236 Ge 72.64 1 0.915006 12.108 66.0705 -0.585314 -0.265442 -0.470923 2.25834 -1.97417 0.902066 -4.70723
237 Ge 72.64 1 30.3414 39.3082 20.5747 -0.191009 -0.341166 1.13239 2.2973 -2.7692 -3.18043 -4.71843
238 Ge 72.64 1 50.5471 36.1372 33.0917 0.815296 0.593571 0.0989595 0.157798 -2.82706 -1.85979 -4.38622
239 Ge 72.64 1 60.2772 24.5328 0.184238 -0.0298563 0.0629008 -0.284556 -1.37197 -0.272196 -6.84327 -4.53707
240 Ge 72.64 1 3.33871 3.39706 60.4901 -0.253603 -0.902819 -0.00624327 -0.136864 -2.83266 -3.97088 -4.58485
241 Ge 72.64 1 39.1391 48.1972 33.0406 -0.365398 -0.28184 0.362257 0.80775 -1.47168 1.22808 -4.63526
242 Ge 72.64 1 15.2031 36.1648 9.44836 -0.159877 0.0493283 -0.180361 -0.547285 -6.63481 1.82235 -4.6746
243 Ge 72.64 1 54.7425 17.9539 41.886 -0.727857 0.583855 0.427649 0.0309556 -1.39134 1.97088 -4.76201
244 Ge 72.64 1 47.9395 62.7932 56.7591 1.1643 0.184507 0.456404 -6.10074 2.64873 1.00663 -4.52932
245 Ge 72.64 1 53.7103 36.5653 48.0221 0.840634 -0.699726 -0.270053 -3.31559 -0.625823 -1.13856 -4.90496
246 Ge 72.64 1 18.077 14.2334 44.4102 0.376178 1.08351 0.439624 1.63817 1.77379 2.81889 -4.68271
247 Ge 72.64 1 33.129 66.1168 39.488 0.200405 -0.122813 -0.163651 -3.00415 -0.160115 0.653783 -4.69295
248 Ge 72.64 1 -0.0395501 42.3712 66.3334 -0.442271 0.4748 -0.27073 -4.11886 -2.29294 0.423326 -4.68119
249 Ge 72.64 1 21.0165 51.1122 60.2653 0.0876043 0.0803143 0.146822 1.40517 1.07501 3.68591 -4.55764
250 Ge 72.64 1 48.1934 17.567 66.2416 -0.315594 1.2979 0.307486 -1.00198 -2.81914 -0.243043 -4.60035
251 Ge 72.64 1 38.8309 39.0014 71.4329 0.016392 0.21591 0.30333 -1.70068 1.61792 -3.52463 -4.67192
252 Ge 72.64 1 47.9194 33.0847 14.7338 0.28368 0.492872 0.0844659 -1.37217 2.10586 2.56128 -4.81918
253 Ge 72.64 1 66.0128 45.2135 51.2205 0.402584 -0.167749 -0.133703 1.675 -2.36616 -0.70642 -4.72746
254 Ge 72.64 1 35.9503 20.662 45.3175 0.107913 0.975356 -0.0444171 -0.338506 0.0233185 0.181441 -4.56152
255 Ge 72.64 1 50.7056 57.2842 36.1683 -0.123977 -0.0829569 0.137978 0.901457 -4.68034 2.68728 -4.74772
256 Ge 72.64 1 51.5261 48.1872 68.6784 -1.26522 -0.245142 0.563818 1.41689 -3.29048 4.34838 -4.6496
257 Ge 72.64 1 11.8819 65.7701 48.0433 -0.396791 0.254824 -0.0715765 -4.60658 -0.461245 -0.85456 -4.43793
258 Ge 72.64 1 33.1928 54.3979 44.7843 0.125467 0.230776 -0.0643232 -2.0108 5.21367 -4.59925 -4.48081
259 Ge 72.64 1 59.9457 48.7413 53.9655 -0.303187 0.0489607 0.113203 -3.87254 3.1571 4.85148 -4.67179
260 Ge 72.64 1 48.3424 2.84629 20.9412 -0.296751 0.167416 0.530805 -5.93341 0.214173 -4.08611 -4.6288
261 Ge 72.64 1 41.9522 30.1173 6.22427 -0.17924 -0.420981 -0.566899 -2.12003 -2.96756 -0.913625 -4.67093
262 Ge 72.64 1 63.0241 62.9637 5.85675 0.411176 0.644911 0.56827 -1.23861 -4.07675 -2.90768 -4.78058
263 Ge 72.64 1 66.1947 48.1336 60.0686 -0.255765 -0.344734 0.100709 -1.4124 -0.38967 -0.149622 -4.54358
264 Ge 72.64 1 38.9482 9.02527 23.653 0.443289 0.68072 0.415846 -0.830599 0.502928 0.741489 -4.59029
265 Ge 72.64 1 2.66246 51.3842 12.1874 0.412317 -0.480765 -0.215932 -0.255752 0.715226 0.458985 -4.63971
266 Ge 72.64 1 54.0197 54.4045 12.4658 0.358305 -0.76514 -0.0646707 3.4864 -1.79143 -9.09684 -4.59335
267 Ge 72.64 1 36.3067 14.9509 14.8132 -0.0779239 -0.317106 0.325771 3.41301 -0.484965 -0.8508 -4.52529
268 Ge 72.64 1 8.96225 65.8382 3.31923 -0.263187 0.793532 -0.403636 0.149151 -3.56122 3.073 -4.49383
269 Ge 72.64 1 48.3791 47.5168 65.9082 -0.255489 1.17403 -0.166331 -2.59054 0.057185 -3.67717 -4.86133
270 Ge 72.64 1 36.4116 12.1185 48.4158 -0.232263 0.573895 0.00539987 -1.33753 3.25426 0.978892 -4.73168
271 Ge 72.64 1 32.8486 32.9109 6.40888 -0.341888 -0.0111443 -1.29186 3.79632 1.31566 0.237262 -4.63366
272 Ge 72.64 1 53.9148 45.3502 63.2935 -0.150925 0.156961 -0.341277 3.14953 0.462517 -1.52581 -4.66166
273 Ge 72.64 1 71.6005 5.9189 24.0968 0.00369205 -0.409987 0.334019 -5.06199 1.82215 -0.783343 -4.76591
274 Ge 72.64 1 23.8177 17.9901 71.1798 0.224902 -0.0761064 0.191527 -1.79701 -0.891763 -2.77751 -4.79743
275 Ge 72.64 1 54.1735 9.43436 21.215 0.0703082 -0.327042 -0.400094 -1.05448 0.071727 -0.0165629 -4.70351
276 Ge 72.64 1 65.9902 60.1014 11.7306 0.486189 0.342016 -0.0592409 3.28913 3.23155 -4.86254 -4.58458
277 Ge 72.64 1 23.6749 50.5626 50.9986 -0.0663925 1.25294 -0.258999 0.00185139 1.81003 -6.92476 -4.5633
278 Ge 72.64 1 9.36345 63.1527 54.1638 -0.168753 -0.371074 -0.349442 -2.15252 4.32816 3.23861 -4.66838
279 Ge 72.64 1 9.23147 66.0356 51.3425 -0.384037 -0.0321621 -0.570413 1.12645 -3.32067 2.37622 -4.54046
280 Ge 72.64 1 48.2258 6.53505 60.2803 -0.135676 -1.9748 0.365653 -0.597011 -0.490143 5.21727 -4.56259
281 Ge 72.64 1 26.5465 21.4253 18.0992 -0.0981528 -0.202291 -0.383327 -3.49705 -3.19754 -2.9778 -4.72962
282 Ge 72.64 1 9.22702 20.9021 71.9755 0.105079 0.19415 -0.0206687 2.64072 3.94462 3.24785 -4.58627
283 Ge 72.64 1 9.12005 3.09957 42.2871 -0.174092 -0.305194 -0.493642 -1.2063 -2.22078 7.61983 -4.68423
284 Ge 72.64 1 23.5242 21.1442 50.9961 -0.0376547 -0.746872 0.0886343 -1.55247 1.76433 -0.234208 -4.81686
285 Ge 72.64 1 42.3804 47.8335 60.016 0.138059 0.300593 0.043503 2.47466 2.66625 4.6417 -4.52108
286 Ge 72.64 1 69.0831 54.5345 14.9527 0.401446 -0.303562 0.608338 -2.03766 -1.07744 -0.168081 -4.73833
287 Ge 72.64 1 56.4666 45.3719 24.0324 0.0101174 -0.044093 -0.0574471 1.89769 1.57451 0.396434 -4.34259
288 Ge 72.64 1 57.6249 30.0526 9.07105 -0.104734 -0.332082 -0.380738 -0.40723 0.57175 -2.35322 -4.57877
289 Ge 72.64 1 60.4128 51.631 45.0662 0.395926 -1.1353 0.389578 -2.96407 -1.2174 -4.70004 -4.80955
290 Ge 72.64 1 20.8643 32.3825 12.1744 0.449954 -0.112459 -1.04283 5.44297 1.84503 3.07167 -4.61356