# Converted from POSCAR to lammps format

12442 atoms
3 atom types

0.000000   72.169528   xlo xhi
0.000000   72.169528   ylo yhi
0.000000   72.169528   zlo zhi

  0.000000    0.000000    0.000000   xy xz yz

Atoms

   1  1      21.049446 21.049446 48.113019
   2  1      60.141273 6.014127 24.056509
   3  1      27.063573 12.028255 39.091828
   4  1      30.070637 36.084764 66.155401
   5  1      39.091828 63.148337 36.084764
   6  1      45.105955 48.113019 51.120082
   7  1      57.134210 33.077700 48.113019
   8  1      63.148337 36.084764 39.091828
   9  1      66.155401 18.042382 66.155401
  10  1      51.120082 54.127146 69.162464
  11  1      57.134210 27.063573 54.127146
  12  1      24.056509 3.007064 33.077700
  13  1      0.000000 39.091828 63.148337
  14  1      33.077700 66.155401 45.105955
  15  1      3.007064 33.077700 12.028255
  16  1      0.000000 18.042382 30.070637
  17  1      39.091828 9.021191 36.084764
  18  1      18.042382 9.021191 45.105955
  19  1      3.007064 0.000000 27.063573
  20  1      33.077700 18.042382 3.007064
  21  1      69.162464 54.127146 9.021191
  22  1      12.028255 42.098891 48.113019
  23  1      54.127146 3.007064 3.007064
  24  1      54.127146 60.141273 66.155401
  25  1      69.162464 57.134210 24.056509
  26  1      51.120082 24.056509 15.035318
  27  1      3.007064 39.091828 30.070637
  28  1      12.028255 54.127146 0.000000
  29  1      69.162464 54.127146 63.148337
  30  1      9.021191 39.091828 0.000000
  31  1      42.098891 18.042382 42.098891
  32  1      60.141273 42.098891 36.084764
  33  1      36.084764 27.063573 63.148337
  34  1      66.155401 30.070637 30.070637
  35  1      15.035318 9.021191 66.155401
  36  1      36.084764 54.127146 42.098891
  37  1      36.084764 24.056509 6.014127
  38  1      0.000000 45.105955 9.021191
  39  1      57.134210 9.021191 18.042382
  40  1      18.042382 63.148337 51.120082
  41  1      69.162464 39.091828 60.141273
  42  1      27.063573 33.077700 24.056509
  43  1      24.056509 9.021191 63.148337
  44  1      60.141273 18.042382 36.084764
  45  1      48.113019 3.007064 57.134210
  46  1      66.155401 18.042382 42.098891
  47  1      60.141273 36.084764 30.070637
  48  1      12.028255 33.077700 3.007064
  49  1      48.113019 9.021191 69.162464
  50  1      6.014127 66.155401 24.056509
  51  1      60.141273 69.162464 69.162464
  52  1      48.113019 9.021191 15.035318
  53  1      69.162464 57.134210 54.127146
  54  1      36.084764 48.113019 6.014127
  55  1      12.028255 15.035318 27.063573
  56  1      60.141273 54.127146 54.127146
  57  1      9.021191 48.113019 27.063573
  58  1      51.120082 57.134210 30.070637
  59  1      15.035318 51.120082 6.014127
  60  1      12.028255 63.148337 15.035318
  61  1      42.098891 45.105955 27.063573
  62  1      63.148337 30.070637 51.120082
  63  1      54.127146 6.014127 18.042382
  64  1      39.091828 15.035318 54.127146
  65  1      48.113019 42.098891 48.113019
  66  1      30.070637 12.028255 36.084764
  67  1      6.014127 60.141273 36.084764
  68  1      54.127146 39.091828 33.077700
  69  1      9.021191 21.049446 0.000000
  70  1      27.063573 30.070637 39.091828
  71  1      12.028255 30.070637 12.028255
  72  1      42.098891 24.056509 24.056509
  73  1      69.162464 0.000000 15.035318
  74  1      0.000000 30.070637 48.113019
  75  1      42.098891 33.077700 69.162464
  76  1      27.063573 30.070637 3.007064
  77  1      69.162464 27.063573 60.141273
  78  1      57.134210 42.098891 3.007064
  79  1      15.035318 42.098891 21.049446
  80  1      51.120082 54.127146 15.035318
  81  1      51.120082 42.098891 3.007064
  82  1      9.021191 30.070637 21.049446
  83  1      63.148337 69.162464 18.042382
  84  1      6.014127 33.077700 9.021191
  85  1      57.134210 54.127146 9.021191
  86  1      12.028255 6.014127 12.028255
  87  1      66.155401 24.056509 36.084764
  88  1      15.035318 42.098891 39.091828
  89  1      60.141273 42.098891 42.098891
  90  1      3.007064 3.007064 36.084764
  91  1      60.141273 39.091828 51.120082
  92  1      21.049446 27.063573 66.155401
  93  1      42.098891 15.035318 3.007064
  94  1      18.042382 66.155401 30.070637
  95  1      24.056509 51.120082 57.134210
  96  1      15.035318 30.070637 51.120082
  97  1      48.113019 15.035318 57.134210
  98  1      57.134210 24.056509 33.077700
  99  1      39.091828 27.063573 18.042382
 100  1      33.077700 63.148337 12.028255
 101  1      6.014127 3.007064 15.035318
 102  1      0.000000 15.035318 63.148337
 103  1      60.141273 51.120082 3.007064
 104  1      48.113019 18.042382 60.141273
 105  1      30.070637 63.148337 21.049446
 106  1      12.028255 6.014127 6.014127
 107  1      69.162464 39.091828 48.113019
 108  1      12.028255 39.091828 21.049446
 109  1      6.014127 51.120082 27.063573
 110  1      54.127146 3.007064 21.049446
 111  1      24.056509 9.021191 15.035318
 112  1      12.028255 54.127146 24.056509
 113  1      54.127146 15.035318 51.120082
 114  1      15.035318 0.000000 45.105955
 115  1      24.056509 15.035318 33.077700
 116  1      12.028255 21.049446 9.021191
 117  1      15.035318 6.014127 21.049446
 118  1      18.042382 27.063573 39.091828
 119  1      18.042382 36.084764 60.141273
 120  1      60.141273 69.162464 27.063573
 121  1      69.162464 3.007064 30.070637
 122  1      12.028255 18.042382 24.056509
 123  1      69.162464 30.070637 3.007064
 124  1      3.007064 30.070637 15.035318
 125  1      15.035318 51.120082 42.098891
 126  1      63.148337 69.162464 66.155401
 127  1      27.063573 9.021191 0.000000
 128  1      57.134210 9.021191 66.155401
 129  1      0.000000 39.091828 57.134210
 130  1      33.077700 24.056509 39.091828
 131  1      21.049446 0.000000 33.077700
 132  1      60.141273 21.049446 21.049446
 133  1      48.113019 45.105955 21.049446
 134  1      24.056509 9.021191 9.021191
 135  1      39.091828 51.120082 0.000000
 136  1      36.084764 57.134210 3.007064
 137  1      0.000000 12.028255 36.084764
 138  1      9.021191 42.098891 33.077700
 139  1      0.000000 69.162464 63.148337
 140  1      69.162464 21.049446 66.155401
 141  1      57.134210 12.028255 3.007064
 142  1      27.063573 9.021191 66.155401
 143  1      24.056509 36.084764 0.000000
 144  1      39.091828 12.028255 33.077700
 145  1      48.113019 36.084764 6.014127
 146  1      9.021191 24.056509 27.063573
 147  1      21.049446 54.127146 69.162464
 148  1      12.028255 6.014127 60.141273
 149  1      48.113019 24.056509 54.127146
 150  1      57.134210 30.070637 69.162464
 151  1      9.021191 18.042382 63.148337
 152  1      3.007064 45.105955 66.155401
 153  1      15.035318 18.042382 63.148337
 154  1      0.000000 21.049446 39.091828
 155  1      57.134210 30.070637 63.148337
 156  1      27.063573 42.098891 39.091828
 157  1      0.000000 24.056509 24.056509
 158  1      15.035318 21.049446 48.113019
 159  1      6.014127 9.021191 27.063573
 160  1      33.077700 9.021191 18.042382
 161  1      0.000000 57.134210 51.120082
 162  1      0.000000 60.141273 24.056509
 163  1      33.077700 42.098891 21.049446
 164  1      69.162464 51.120082 12.028255
 165  1      0.000000 0.000000 36.084764
 166  1      27.063573 24.056509 57.134210
 167  1      27.063573 30.070637 57.134210
 168  1      57.134210 15.035318 24.056509
 169  1      33.077700 12.028255 57.134210
 170  1      33.077700 9.021191 24.056509
 171  1      63.148337 39.091828 12.028255
 172  1      60.141273 27.063573 51.120082
 173  1      69.162464 33.077700 48.113019
 174  1      48.113019 12.028255 60.141273
 175  1      0.000000 27.063573 63.148337
 176  1      0.000000 27.063573 45.105955
 177  1      69.162464 63.148337 18.042382
 178  1      48.113019 54.127146 24.056509
 179  1      54.127146 9.021191 45.105955
 180  1      33.077700 57.134210 42.098891
 181  1      36.084764 36.084764 24.056509
 182  1      3.007064 57.134210 30.070637
 183  1      0.000000 57.134210 33.077700
 184  1      3.007064 45.105955 0.000000
 185  1      24.056509 54.127146 42.098891
 186  1      54.127146 45.105955 39.091828
 187  1      27.063573 66.155401 45.105955
 188  1      15.035318 21.049446 36.084764
 189  1      12.028255 33.077700 45.105955
 190  1      9.021191 63.148337 48.113019
 191  1      18.042382 15.035318 9.021191
 192  1      66.155401 12.028255 24.056509
 193  1      54.127146 66.155401 48.113019
 194  1      60.141273 30.070637 12.028255
 195  1      54.127146 69.162464 33.077700
 196  1      9.021191 27.063573 66.155401
 197  1      54.127146 18.042382 54.127146
 198  1      15.035318 45.105955 24.056509
 199  1      30.070637 12.028255 48.113019
 200  1      6.014127 66.155401 0.000000
 201  1      27.063573 42.098891 3.007064
 202  1      30.070637 57.134210 33.077700
 203  1      48.113019 63.148337 51.120082
 204  1      24.056509 36.084764 48.113019
 205  1      63.148337 21.049446 18.042382
 206  1      36.084764 30.070637 42.098891
 207  1      42.098891 45.105955 9.021191
 208  1      66.155401 9.021191 57.134210
 209  1      6.014127 36.084764 42.098891
 210  1      36.084764 45.105955 21.049446
 211  1      66.155401 18.042382 12.028255
 212  1      57.134210 57.134210 6.014127
 213  1      12.028255 42.098891 66.155401
 214  1      51.120082 57.134210 60.141273
 215  1      54.127146 3.007064 15.035318
 216  1      66.155401 51.120082 45.105955
 217  1      18.042382 24.056509 60.141273
 218  1      24.056509 51.120082 63.148337
 219  1      33.077700 51.120082 24.056509
 220  1      0.000000 30.070637 0.000000
 221  1      0.000000 27.063573 39.091828
 222  1      12.028255 0.000000 24.056509
 223  1      45.105955 36.084764 33.077700
 224  1      0.000000 9.021191 57.134210
 225  1      45.105955 69.162464 6.014127
 226  1      21.049446 18.042382 69.162464
 227  1      30.070637 33.077700 69.162464
 228  1      36.084764 21.049446 15.035318
 229  1      42.098891 27.063573 27.063573
 230  1      45.105955 18.042382 69.162464
 231  1      15.035318 27.063573 54.127146
 232  1      12.028255 60.141273 6.014127
 233  1      21.049446 48.113019 39.091828
 234  1      12.028255 42.098891 0.000000
 235  1      66.155401 33.077700 63.148337
 236  1      36.084764 30.070637 60.141273
 237  1      24.056509 69.162464 57.134210
 238  1      3.007064 18.042382 33.077700
 239  1      60.141273 0.000000 0.000000
 240  1      33.077700 3.007064 30.070637
 241  1      18.042382 30.070637 48.113019
 242  1      42.098891 36.084764 54.127146
 243  1      57.134210 42.098891 57.134210
 244  1      51.120082 21.049446 6.014127
 245  1      12.028255 9.021191 57.134210
 246  1      15.035318 60.141273 15.035318
 247  1      24.056509 0.000000 0.000000
 248  1      45.105955 21.049446 0.000000
 249  1      27.063573 3.007064 12.028255
 250  1      18.042382 6.014127 0.000000
 251  1      45.105955 45.105955 12.028255
 252  1      45.105955 6.014127 69.162464
 253  1      66.155401 63.148337 63.148337
 254  1      21.049446 60.141273 3.007064
 255  1      66.155401 15.035318 45.105955
 256  1      45.105955 0.000000 3.007064
 257  1      51.120082 0.000000 21.049446
 258  1      6.014127 33.077700 33.077700
 259  1      27.063573 30.070637 27.063573
 260  1      30.070637 3.007064 33.077700
 261  1      66.155401 39.091828 39.091828
 262  1      36.084764 42.098891 66.155401
 263  1      3.007064 60.141273 21.049446
 264  1      45.105955 54.127146 3.007064
 265  1      60.141273 33.077700 69.162464
 266  1      24.056509 57.134210 21.049446
 267  1      36.084764 33.077700 15.035318
 268  1      6.014127 54.127146 24.056509
 269  1      27.063573 3.007064 54.127146
 270  1      24.056509 54.127146 6.014127
 271  1      51.120082 69.162464 60.141273
 272  1      30.070637 45.105955 9.021191
 273  1      27.063573 12.028255 57.134210
 274  1      3.007064 39.091828 12.028255
 275  1      60.141273 0.000000 66.155401
 276  1      33.077700 30.070637 51.120082
 277  1      15.035318 0.000000 57.134210
 278  1      18.042382 21.049446 69.162464
 279  1      21.049446 60.141273 9.021191
 280  1      9.021191 66.155401 69.162464
 281  1      45.105955 69.162464 60.141273
 282  1      51.120082 18.042382 57.134210
 283  1      57.134210 42.098891 27.063573
 284  1      6.014127 48.113019 12.028255
 285  1      63.148337 9.021191 48.113019
 286  1      15.035318 30.070637 27.063573
 287  1      24.056509 9.021191 69.162464
 288  1      36.084764 45.105955 27.063573
 289  1      18.042382 18.042382 30.070637
 290  1      36.084764 12.028255 60.141273
 291  1      27.063573 48.113019 21.049446
 292  1      9.021191 30.070637 57.134210
 293  1      48.113019 12.028255 54.127146
 294  1      42.098891 39.091828 15.035318
 295  1      30.070637 18.042382 36.084764
 296  1      51.120082 24.056509 45.105955
 297  1      18.042382 18.042382 0.000000
 298  1      30.070637 63.148337 39.091828
 299  1      21.049446 39.091828 60.141273
 300  1      60.141273 3.007064 69.162464
 301  1      30.070637 15.035318 63.148337
 302  1      9.021191 60.141273 39.091828
 303  1      60.141273 66.155401 18.042382
 304  1      27.063573 24.056509 21.049446
 305  1      39.091828 9.021191 6.014127
 306  1      9.021191 27.063573 54.127146
 307  1      54.127146 9.021191 63.148337
 308  1      21.049446 69.162464 66.155401
 309  1      54.127146 48.113019 48.113019
 310  1      3.007064 30.070637 45.105955
 311  1      6.014127 30.070637 24.056509
 312  1      33.077700 36.084764 63.148337
 313  1      21.049446 6.014127 39.091828
 314  1      45.105955 6.014127 9.021191
 315  1      6.014127 24.056509 24.056509
 316  1      60.141273 39.091828 69.162464
 317  1      6.014127 48.113019 18.042382
 318  1      60.141273 15.035318 27.063573
 319  1      54.127146 42.098891 30.070637
 320  1      45.105955 36.084764 45.105955
 321  1      9.021191 0.000000 45.105955
 322  1      21.049446 21.049446 54.127146
 323  1      36.084764 24.056509 66.155401
 324  1      33.077700 3.007064 42.098891
 325  1      36.084764 33.077700 51.120082
 326  1      48.113019 0.000000 6.014127
 327  1      42.098891 63.148337 45.105955
 328  1      69.162464 48.113019 57.134210
 329  1      18.042382 36.084764 6.014127
 330  1      0.000000 57.134210 15.035318
 331  1      63.148337 30.070637 15.035318
 332  1      21.049446 3.007064 36.084764
 333  1      3.007064 42.098891 39.091828
 334  1      6.014127 24.056509 0.000000
 335  1      48.113019 63.148337 15.035318
 336  1      21.049446 12.028255 15.035318
 337  1      57.134210 0.000000 33.077700
 338  1      12.028255 51.120082 21.049446
 339  1      9.021191 66.155401 15.035318
 340  1      66.155401 0.000000 0.000000
 341  1      9.021191 0.000000 33.077700
 342  1      45.105955 6.014127 45.105955
 343  1      9.021191 18.042382 15.035318
 344  1      60.141273 9.021191 45.105955
 345  1      3.007064 12.028255 33.077700
 346  1      36.084764 39.091828 69.162464
 347  1      54.127146 36.084764 6.014127
 348  1      33.077700 36.084764 39.091828
 349  1      60.141273 63.148337 39.091828
 350  1      0.000000 48.113019 60.141273
 351  1      24.056509 27.063573 45.105955
 352  1      42.098891 24.056509 36.084764
 353  1      0.000000 0.000000 66.155401
 354  1      33.077700 24.056509 3.007064
 355  1      33.077700 33.077700 66.155401
 356  1      60.141273 57.134210 15.035318
 357  1      18.042382 0.000000 24.056509
 358  1      48.113019 9.021191 57.134210
 359  1      48.113019 42.098891 36.084764
 360  1      18.042382 3.007064 21.049446
 361  1      18.042382 0.000000 6.014127
 362  1      24.056509 45.105955 21.049446
 363  1      36.084764 45.105955 45.105955
 364  1      42.098891 9.021191 33.077700
 365  1      42.098891 66.155401 0.000000
 366  1      33.077700 60.141273 69.162464
 367  1      18.042382 63.148337 21.049446
 368  1      36.084764 51.120082 33.077700
 369  1      12.028255 48.113019 48.113019
 370  1      6.014127 63.148337 45.105955
 371  1      66.155401 21.049446 27.063573
 372  1      6.014127 57.134210 9.021191
 373  1      63.148337 6.014127 51.120082
 374  1      27.063573 48.113019 63.148337
 375  1      51.120082 15.035318 60.141273
 376  1      66.155401 54.127146 12.028255
 377  1      24.056509 66.155401 36.084764
 378  1      54.127146 15.035318 21.049446
 379  1      12.028255 27.063573 27.063573
 380  1      9.021191 39.091828 24.056509
 381  1      18.042382 24.056509 6.014127
 382  1      42.098891 45.105955 57.134210
 383  1      69.162464 66.155401 51.120082
 384  1      45.105955 39.091828 12.028255
 385  1      15.035318 21.049446 54.127146
 386  1      3.007064 33.077700 66.155401
 387  1      69.162464 15.035318 30.070637
 388  1      33.077700 57.134210 12.028255
 389  1      36.084764 3.007064 21.049446
 390  1      45.105955 66.155401 57.134210
 391  1      36.084764 12.028255 54.127146
 392  1      51.120082 15.035318 18.042382
 393  1      12.028255 69.162464 63.148337
 394  1      54.127146 45.105955 45.105955
 395  1      12.028255 66.155401 6.014127
 396  1      54.127146 33.077700 69.162464
 397  1      48.113019 27.063573 51.120082
 398  1      45.105955 54.127146 21.049446
 399  1      45.105955 60.141273 3.007064
 400  1      57.134210 15.035318 18.042382
 401  1      60.141273 9.021191 33.077700
 402  1      36.084764 27.063573 3.007064
 403  1      39.091828 69.162464 42.098891
 404  1      36.084764 66.155401 54.127146
 405  1      48.113019 33.077700 9.021191
 406  1      48.113019 18.042382 48.113019
 407  1      42.098891 66.155401 36.084764
 408  1      48.113019 39.091828 21.049446
 409  1      21.049446 42.098891 9.021191
 410  1      48.113019 6.014127 54.127146
 411  1      57.134210 36.084764 57.134210
 412  1      57.134210 6.014127 51.120082
 413  1      63.148337 24.056509 39.091828
 414  1      39.091828 39.091828 30.070637
 415  1      69.162464 54.127146 69.162464
 416  1      51.120082 18.042382 15.035318
 417  1      0.000000 63.148337 27.063573
 418  1      24.056509 6.014127 66.155401
 419  1      27.063573 3.007064 36.084764
 420  1      27.063573 45.105955 6.014127
 421  1      18.042382 18.042382 54.127146
 422  1      45.105955 33.077700 12.028255
 423  1      0.000000 42.098891 60.141273
 424  1      54.127146 54.127146 12.028255
 425  1      39.091828 66.155401 33.077700
 426  1      66.155401 66.155401 0.000000
 427  1      18.042382 57.134210 57.134210
 428  1      3.007064 33.077700 60.141273
 429  1      66.155401 27.063573 57.134210
 430  1      57.134210 6.014127 3.007064
 431  1      39.091828 6.014127 69.162464
 432  1      63.148337 39.091828 54.127146
 433  1      57.134210 36.084764 69.162464
 434  1      0.000000 63.148337 15.035318
 435  1      30.070637 12.028255 6.014127
 436  1      66.155401 24.056509 18.042382
 437  1      15.035318 27.063573 36.084764
 438  1      57.134210 42.098891 33.077700
 439  1      66.155401 36.084764 54.127146
 440  1      54.127146 36.084764 12.028255
 441  1      0.000000 48.113019 30.070637
 442  1      21.049446 30.070637 15.035318
 443  1      21.049446 69.162464 24.056509
 444  1      24.056509 66.155401 18.042382
 445  1      6.014127 0.000000 30.070637
 446  1      0.000000 39.091828 3.007064
 447  1      15.035318 9.021191 12.028255
 448  1      45.105955 66.155401 45.105955
 449  1      15.035318 39.091828 60.141273
 450  1      66.155401 27.063573 69.162464
 451  1      30.070637 12.028255 66.155401
 452  1      42.098891 45.105955 15.035318
 453  1      9.021191 60.141273 63.148337
 454  1      60.141273 33.077700 63.148337
 455  1      48.113019 60.141273 42.098891
 456  1      30.070637 15.035318 3.007064
 457  1      33.077700 33.077700 42.098891
 458  1      60.141273 66.155401 60.141273
 459  1      39.091828 18.042382 27.063573
 460  1      21.049446 69.162464 36.084764
 461  1      33.077700 6.014127 51.120082
 462  1      27.063573 36.084764 63.148337
 463  1      66.155401 21.049446 15.035318
 464  1      18.042382 18.042382 42.098891
 465  1      30.070637 9.021191 51.120082
 466  1      12.028255 33.077700 39.091828
 467  1      15.035318 60.141273 39.091828
 468  1      42.098891 24.056509 30.070637
 469  1      54.127146 33.077700 63.148337
 470  1      69.162464 0.000000 33.077700
 471  1      18.042382 51.120082 9.021191
 472  1      24.056509 63.148337 3.007064
 473  1      66.155401 66.155401 54.127146
 474  1      15.035318 33.077700 6.014127
 475  1      36.084764 0.000000 48.113019
 476  1      57.134210 36.084764 3.007064
 477  1      27.063573 33.077700 36.084764
 478  1      45.105955 33.077700 30.070637
 479  1      42.098891 51.120082 3.007064
 480  1      48.113019 57.134210 69.162464
 481  1      15.035318 9.021191 6.014127
 482  1      69.162464 24.056509 9.021191
 483  1      39.091828 60.141273 39.091828
 484  1      45.105955 0.000000 27.063573
 485  1      21.049446 3.007064 66.155401
 486  1      9.021191 45.105955 66.155401
 487  1      15.035318 66.155401 39.091828
 488  1      24.056509 30.070637 36.084764
 489  1      57.134210 57.134210 48.113019
 490  1      48.113019 0.000000 42.098891
 491  1      48.113019 66.155401 36.084764
 492  1      69.162464 63.148337 54.127146
 493  1      30.070637 12.028255 24.056509
 494  1      21.049446 57.134210 6.014127
 495  1      48.113019 3.007064 9.021191
 496  1      45.105955 51.120082 12.028255
 497  1      42.098891 33.077700 33.077700
 498  1      12.028255 15.035318 69.162464
 499  1      63.148337 48.113019 15.035318
 500  1      39.091828 57.134210 0.000000
 501  1      60.141273 63.148337 15.035318
 502  1      6.014127 63.148337 3.007064
 503  1      57.134210 69.162464 48.113019
 504  1      18.042382 9.021191 57.134210
 505  1      63.148337 48.113019 69.162464
 506  1      66.155401 6.014127 36.084764
 507  1      45.105955 36.084764 57.134210
 508  1      63.148337 33.077700 54.127146
 509  1      12.028255 60.141273 54.127146
 510  1      57.134210 51.120082 66.155401
 511  1      36.084764 24.056509 48.113019
 512  1      3.007064 12.028255 3.007064
 513  1      57.134210 21.049446 60.141273
 514  1      3.007064 27.063573 66.155401
 515  1      42.098891 21.049446 51.120082
 516  1      45.105955 60.141273 69.162464
 517  1      9.021191 60.141273 9.021191
 518  1      21.049446 0.000000 9.021191
 519  1      21.049446 6.014127 51.120082
 520  1      54.127146 60.141273 60.141273
 521  1      24.056509 51.120082 3.007064
 522  1      27.063573 66.155401 39.091828
 523  1      6.014127 33.077700 69.162464
 524  1      57.134210 51.120082 48.113019
 525  1      39.091828 69.162464 36.084764
 526  1      36.084764 18.042382 0.000000
 527  1      9.021191 0.000000 51.120082
 528  1      60.141273 51.120082 39.091828
 529  1      63.148337 57.134210 66.155401
 530  1      18.042382 12.028255 48.113019
 531  1      15.035318 54.127146 3.007064
 532  1      69.162464 18.042382 3.007064
 533  1      66.155401 0.000000 48.113019
 534  1      33.077700 9.021191 0.000000
 535  1      3.007064 36.084764 51.120082
 536  1      60.141273 33.077700 15.035318
 537  1      63.148337 30.070637 45.105955
 538  1      30.070637 42.098891 48.113019
 539  1      0.000000 9.021191 63.148337
 540  1      36.084764 54.127146 0.000000
 541  1      69.162464 51.120082 30.070637
 542  1      48.113019 57.134210 63.148337
 543  1      18.042382 57.134210 21.049446
 544  1      45.105955 30.070637 33.077700
 545  1      21.049446 51.120082 42.098891
 546  1      6.014127 27.063573 27.063573
 547  1      12.028255 51.120082 33.077700
 548  1      6.014127 36.084764 6.014127
 549  1      6.014127 9.021191 63.148337
 550  1      54.127146 54.127146 54.127146
 551  1      21.049446 30.070637 3.007064
 552  1      45.105955 18.042382 39.091828
 553  1      30.070637 39.091828 27.063573
 554  1      9.021191 6.014127 69.162464
 555  1      63.148337 66.155401 9.021191
 556  1      18.042382 39.091828 21.049446
 557  1      69.162464 6.014127 69.162464
 558  1      60.141273 15.035318 69.162464
 559  1      33.077700 69.162464 36.084764
 560  1      15.035318 60.141273 9.021191
 561  1      27.063573 21.049446 6.014127
 562  1      66.155401 3.007064 57.134210
 563  1      12.028255 24.056509 24.056509
 564  1      27.063573 27.063573 60.141273
 565  1      39.091828 48.113019 63.148337
 566  1      69.162464 30.070637 69.162464
 567  1      57.134210 9.021191 12.028255
 568  1      45.105955 69.162464 42.098891
 569  1      54.127146 66.155401 18.042382
 570  1      60.141273 9.021191 51.120082
 571  1      51.120082 24.056509 3.007064
 572  1      0.000000 18.042382 66.155401
 573  1      54.127146 9.021191 69.162464
 574  1      42.098891 60.141273 12.028255
 575  1      57.134210 39.091828 60.141273
 576  1      33.077700 27.063573 12.028255
 577  1      36.084764 12.028255 18.042382
 578  1      42.098891 3.007064 15.035318
 579  1      15.035318 54.127146 15.035318
 580  1      36.084764 39.091828 3.007064
 581  1      24.056509 21.049446 33.077700
 582  1      60.141273 39.091828 63.148337
 583  1      36.084764 18.042382 48.113019
 584  1      39.091828 24.056509 57.134210
 585  1      6.014127 51.120082 33.077700
 586  1      66.155401 36.084764 18.042382
 587  1      36.084764 12.028255 30.070637
 588  1      0.000000 42.098891 18.042382
 589  1      51.120082 9.021191 36.084764
 590  1      69.162464 42.098891 21.049446
 591  1      27.063573 69.162464 66.155401
 592  1      12.028255 30.070637 48.113019
 593  1      33.077700 0.000000 69.162464
 594  1      42.098891 0.000000 66.155401
 595  1      48.113019 57.134210 45.105955
 596  1      3.007064 3.007064 30.070637
 597  1      33.077700 15.035318 36.084764
 598  1      27.063573 39.091828 54.127146
 599  1      21.049446 48.113019 69.162464
 600  1      51.120082 69.162464 54.127146
 601  1      48.113019 45.105955 9.021191
 602  1      27.063573 0.000000 27.063573
 603  1      66.155401 39.091828 9.021191
 604  1      54.127146 9.021191 27.063573
 605  1      6.014127 24.056509 18.042382
 606  1      18.042382 9.021191 69.162464
 607  1      15.035318 48.113019 51.120082
 608  1      30.070637 0.000000 36.084764
 609  1      21.049446 42.098891 27.063573
 610  1      39.091828 66.155401 21.049446
 611  1      42.098891 60.141273 18.042382
 612  1      30.070637 6.014127 30.070637
 613  1      42.098891 15.035318 69.162464
 614  1      0.000000 42.098891 66.155401
 615  1      39.091828 24.056509 33.077700
 616  1      3.007064 3.007064 42.098891
 617  1      6.014127 30.070637 60.141273
 618  1      30.070637 30.070637 66.155401
 619  1      54.127146 45.105955 51.120082
 620  1      3.007064 60.141273 9.021191
 621  1      21.049446 6.014127 27.063573
 622  1      45.105955 45.105955 42.098891
 623  1      18.042382 54.127146 42.098891
 624  1      39.091828 30.070637 15.035318
 625  1      18.042382 51.120082 39.091828
 626  1      51.120082 30.070637 51.120082
 627  1      18.042382 60.141273 0.000000
 628  1      48.113019 42.098891 30.070637
 629  1      54.127146 57.134210 51.120082
 630  1      15.035318 18.042382 45.105955
 631  1      69.162464 39.091828 6.014127
 632  1      36.084764 45.105955 39.091828
 633  1      3.007064 48.113019 21.049446
 634  1      39.091828 54.127146 33.077700
 635  1      24.056509 30.070637 12.028255
 636  1      51.120082 45.105955 36.084764
 637  1      15.035318 21.049446 42.098891
 638  1      51.120082 66.155401 45.105955
 639  1      57.134210 33.077700 0.000000
 640  1      27.063573 54.127146 69.162464
 641  1      30.070637 36.084764 12.028255
 642  1      3.007064 6.014127 9.021191
 643  1      60.141273 24.056509 12.028255
 644  1      36.084764 39.091828 21.049446
 645  1      18.042382 42.098891 18.042382
 646  1      24.056509 36.084764 30.070637
 647  1      9.021191 42.098891 63.148337
 648  1      51.120082 12.028255 39.091828
 649  1      0.000000 33.077700 3.007064
 650  1      48.113019 15.035318 39.091828
 651  1      24.056509 66.155401 12.028255
 652  1      3.007064 69.162464 54.127146
 653  1      57.134210 21.049446 42.098891
 654  1      9.021191 66.155401 9.021191
 655  1      6.014127 39.091828 57.134210
 656  1      63.148337 9.021191 0.000000
 657  1      48.113019 42.098891 54.127146
 658  1      36.084764 36.084764 42.098891
 659  1      57.134210 57.134210 36.084764
 660  1      60.141273 36.084764 48.113019
 661  1      18.042382 48.113019 60.141273
 662  1      0.000000 15.035318 39.091828
 663  1      30.070637 51.120082 33.077700
 664  1      66.155401 18.042382 54.127146
 665  1      57.134210 21.049446 12.028255
 666  1      42.098891 33.077700 21.049446
 667  1      18.042382 24.056509 42.098891
 668  1      27.063573 18.042382 39.091828
 669  1      57.134210 24.056509 57.134210
 670  1      0.000000 24.056509 36.084764
 671  1      36.084764 57.134210 69.162464
 672  1      39.091828 36.084764 51.120082
 673  1      24.056509 69.162464 27.063573
 674  1      15.035318 69.162464 66.155401
 675  1      18.042382 21.049446 27.063573
 676  1      39.091828 33.077700 60.141273
 677  1      18.042382 66.155401 36.084764
 678  1      6.014127 51.120082 21.049446
 679  1      57.134210 48.113019 27.063573
 680  1      30.070637 57.134210 21.049446
 681  1      69.162464 33.077700 54.127146
 682  1      24.056509 9.021191 33.077700
 683  1      3.007064 54.127146 45.105955
 684  1      24.056509 9.021191 51.120082
 685  1      48.113019 24.056509 42.098891
 686  1      6.014127 33.077700 3.007064
 687  1      15.035318 36.084764 57.134210
 688  1      0.000000 66.155401 12.028255
 689  1      3.007064 63.148337 30.070637
 690  1      36.084764 33.077700 33.077700
 691  1      30.070637 33.077700 9.021191
 692  1      54.127146 33.077700 45.105955
 693  1      12.028255 45.105955 27.063573
 694  1      24.056509 63.148337 69.162464
 695  1      30.070637 60.141273 30.070637
 696  1      57.134210 21.049446 18.042382
 697  1      27.063573 45.105955 12.028255
 698  1      39.091828 0.000000 3.007064
 699  1      48.113019 18.042382 36.084764
 700  1      21.049446 6.014127 33.077700