ITEM: TIMESTEP
1001000
ITEM: NUMBER OF ATOMS
12442
ITEM: BOX BOUNDS xy xz yz pp pp pp
0.0000000000000000e+00 7.2169560000000004e+01 0.0000000000000000e+00
0.0000000000000000e+00 7.2169560000000004e+01 0.0000000000000000e+00
0.0000000000000000e+00 7.2169560000000004e+01 0.0000000000000000e+00
ITEM: ATOMS id element mass type x y z fx fy fz vx vy vz c_pe
1 Ge 72.64 1 66.3523 8.76803 26.9831 -0.197141 -0.222503 -0.512841 -0.570476 -5.56482 0.945909 -4.78901
2 Ge 72.64 1 63.0391 12.023 62.9238 0.441593 0.177945 -0.0981996 -3.9579 3.13265 -2.43806 -4.78651
3 Ge 72.64 1 69.3604 30.2456 3.22379 0.203934 0.0478043 -0.152928 -0.997152 2.51316 1.18294 -4.62127
4 Ge 72.64 1 5.82344 51.4532 62.9028 0.236341 -2.1563 0.204828 5.1446 0.438954 -0.219773 -4.61147
5 Ge 72.64 1 24.2052 54.122 60.2405 -0.0515924 -1.08795 -0.0422381 -1.62608 2.6155 -1.9198 -4.49742
6 Ge 72.64 1 42.1561 21.2654 45.0788 -0.463172 -0.453547 0.682285 -2.20743 0.597735 -2.50241 -4.66819
7 Ge 72.64 1 11.9323 9.19883 50.7663 0.529792 -0.133268 0.471246 3.41799 0.242848 -4.04463 -4.55269
8 Ge 72.64 1 54.3261 39.0754 44.8479 -0.0155197 0.0286607 0.120648 -0.583033 0.329132 -1.09607 -4.66605
9 Ge 72.64 1 57.3659 62.5271 59.8529 0.31706 0.571875 -0.451533 -1.611 2.32756 1.87956 -4.59499
10 Ge 72.64 1 60.0358 3.40232 39.2881 -0.257831 -0.354682 0.0319534 0.966841 -1.78594 0.229775 -4.71282
11 Ge 72.64 1 2.83576 -0.0520344 15.2911 -0.20482 0.640494 -0.649629 1.16468 -1.58236 -1.49153 -4.66718
12 Ge 72.64 1 39.1178 8.6571 60.4849 0.10021 -0.189824 -0.454982 -2.0264 -2.5281 -5.55172 -4.63501
13 Ge 72.64 1 18.2094 29.9226 35.5544 0.100863 0.412468 0.494384 2.50889 -0.192981 -3.51604 -4.82691
14 Ge 72.64 1 68.9004 21.2516 17.5587 -0.150846 -0.0397626 0.538198 2.77188 0.0420777 -0.136607 -4.59182
15 Ge 72.64 1 69.1468 51.0613 18.0107 -0.0471642 0.177673 0.619539 0.951288 0.591895 0.59706 -4.6757
16 Ge 72.64 1 54.2909 36.4998 72.0273 -0.00399438 0.00991862 0.0328757 3.06032 -6.83168 2.58561 -4.54539
17 Ge 72.64 1 60.3322 17.5333 11.8588 0.0308086 1.53145 -0.25868 -2.09185 2.6355 -3.32822 -4.7847
18 Ge 72.64 1 42.2739 60.5781 6.44341 -0.365933 -0.476817 -0.358491 -1.25443 0.272814 -1.58914 -4.6433
19 Ge 72.64 1 36.2324 2.8064 69.0432 0.666166 0.647582 -0.279002 4.01415 -1.04264 1.47234 -4.68831
20 Ge 72.64 1 57.1429 24.1571 68.8885 -0.0297595 0.210899 0.417878 -2.00788 -6.9997 0.889716 -4.89986
21 Ge 72.64 1 36.1438 24.3471 60.1016 -0.260983 -0.419369 0.119508 0.0999722 -2.4465 2.20379 -4.37915
22 Ge 72.64 1 15.0627 32.7248 18.1774 -0.491667 0.594049 -0.0567839 0.0552559 -4.46826 -1.35573 -4.67986
23 Ge 72.64 1 66.5535 26.9768 38.7879 -0.366862 -0.268161 0.496189 -1.39432 -0.153959 -0.427924 -4.81614
24 Ge 72.64 1 14.9747 42.2163 63.0902 0.20182 0.138919 -0.249602 -2.33043 -1.09421 -1.13436 -4.61939
25 Ge 72.64 1 29.9106 11.8855 66.0325 -0.166176 0.0955444 -0.0715144 -2.7089 -5.45495 2.22989 -4.3971
26 Ge 72.64 1 26.8836 18.0371 39.2372 -0.225899 0.358155 -0.402687 1.48167 -1.81384 -2.0372 -4.52628
27 Ge 72.64 1 9.25628 36.3548 27.2285 -0.713569 -0.44231 -0.180797 1.37874 -2.06621 3.94279 -4.71656
28 Ge 72.64 1 29.8851 56.7535 38.9376 0.358788 0.539328 0.355649 -0.813072 -0.509872 0.448473 -4.6887
29 Ge 72.64 1 44.8197 36.2509 33.419 0.365435 -0.696668 0.428429 3.58833 2.08141 -1.88107 -4.57553
30 Ge 72.64 1 36.4886 53.8556 54.0352 -0.0770738 0.148561 0.130904 -1.06588 4.45568 -0.856408 -4.40449
31 Ge 72.64 1 65.9682 62.9549 69.4334 0.463982 0.539845 -0.0421188 3.41457 0.391022 -5.42119 -4.49947
32 Ge 72.64 1 9.00541 66.4479 8.68234 -0.502741 0.292455 0.214633 -1.17871 1.59505 -1.23789 -4.71726
33 Ge 72.64 1 15.1303 30.6401 69.3381 0.217785 -0.480262 -0.12319 -6.97003 1.27894 0.330142 -4.51231
34 Ge 72.64 1 68.7972 24.4719 33.1719 0.15267 -1.21966 0.1331 -3.3929 0.637652 3.22945 -4.8225
35 Ge 72.64 1 42.2435 17.9167 36.2652 0.440544 -0.0459776 -0.33875 2.71134 -0.272941 1.38992 -4.55287
36 Ge 72.64 1 48.1989 35.7085 71.7997 0.130441 0.564543 -0.0721581 0.510766 -6.00735 2.55906 -4.57518
37 Ge 72.64 1 45.2603 69.0915 41.8665 0.144936 0.291753 1.19298 -2.16022 -3.43674 -3.50978 -4.69334
38 Ge 72.64 1 66.0968 39.7363 9.02544 0.0943286 -0.912376 -0.142225 0.777625 0.447783 -0.507924 -4.63993
39 Ge 72.64 1 69.2396 35.7592 51.2166 0.0491629 0.45373 -0.322887 -4.18784 -0.829296 2.20859 -4.65925
40 Ge 72.64 1 65.9779 2.94832 21.3697 0.732389 -0.051241 -0.611321 -4.70623 -2.65082 6.09586 -4.76299
41 Ge 72.64 1 57.9549 18.203 8.73444 -0.317014 -0.6757 -0.330571 0.333386 1.05499 0.328576 -4.95509
42 Ge 72.64 1 38.8459 15.2914 30.039 0.529754 -0.0700599 0.13402 3.00762 7.01337 -3.3876 -4.82609
43 Ge 72.64 1 5.66659 6.35172 36.3024 0.135923 -0.180788 -0.408377 -1.42826 1.37203 1.04653 -4.70911
44 Ge 72.64 1 30.4497 14.6551 45.2574 -0.06653 0.150562 -0.322294 0.17819 5.6594 3.16753 -4.69444
45 Ge 72.64 1 32.7521 32.759 41.7734 0.628668 0.219331 0.157998 2.15371 3.77102 2.35717 -4.58522
46 Ge 72.64 1 14.7174 15.4956 23.8515 1.23129 -0.120236 0.101704 -3.98139 -2.81039 -2.80664 -4.57658
47 Ge 72.64 1 8.88018 45.3329 65.9043 0.41017 -0.56195 -0.0899517 3.33555 0.0179438 -3.54546 -4.76773
48 Ge 72.64 1 57.3152 15.3707 60.475 -0.131133 0.392606 -0.215473 -0.649418 -3.34958 -6.197 -4.75457
49 Ge 72.64 1 29.9742 33.0996 8.79373 0.767599 -0.098356 0.235413 1.89714 -2.17865 -0.0117386 -4.80158
50 Ge 72.64 1 69.0242 18.4849 69.2585 0.12671 0.18633 0.138949 -2.42379 -0.679832 1.31422 -4.70925
51 Ge 72.64 1 54.3236 5.72643 17.9388 -0.205214 0.694151 0.195567 -3.44786 2.96454 1.94792 -4.71415
52 Ge 72.64 1 69.3572 41.8959 27.3925 -0.413185 0.35691 -0.513371 -2.26403 -5.43281 2.96001 -4.63399
53 Ge 72.64 1 62.9775 54.026 9.08862 0.259727 0.00319943 -0.0864837 -0.854834 -3.33129 -2.8391 -4.34113
54 Ge 72.64 1 23.8047 45.3851 32.7868 -0.175403 0.171701 0.367387 0.97749 -0.832331 0.235791 -4.66771
55 Ge 72.64 1 21.0232 21.5544 54.1752 -0.0981902 -0.194246 -0.0790033 -1.13267 4.61288 -2.96632 -4.86067
56 Ge 72.64 1 9.30802 33.1755 30.2193 -0.0276468 -0.542843 -0.149295 -1.5678 -2.65181 -0.816453 -4.54355
57 Ge 72.64 1 5.93588 54.282 5.98292 0.200497 -0.295485 0.128446 -4.53464 -2.7132 -2.85235 -4.59819
58 Ge 72.64 1 63.5755 54.5638 15.005 -0.160898 -0.46115 0.279661 2.91153 -0.203282 -3.513 -4.69329
59 Ge 72.64 1 0.113471 59.7931 35.9709 -0.0140632 0.27297 -0.29437 2.01043 -2.07294 2.438 -4.55524
60 Ge 72.64 1 29.9652 9.21405 51.1587 -0.231501 -0.369597 0.83839 0.705794 -3.83324 4.00427 -4.76347
61 Ge 72.64 1 33.0358 35.956 15.0587 0.499997 -0.0368306 -0.508501 0.100002 -0.400725 -1.68374 -4.85187
62 Ge 72.64 1 26.5389 42.1288 33.2229 0.0741701 0.029058 -0.343508 -2.566 -1.23788 6.08188 -4.57737
63 Ge 72.64 1 11.645 3.0763 63.3545 -0.201998 -0.42652 -0.0125911 0.107076 3.13903 3.98378 -4.40712
64 Ge 72.64 1 57.3184 39.3529 54.1914 -0.742269 -0.443895 -0.125417 1.22183 1.02834 0.804286 -4.88149
65 Ge 72.64 1 33.3569 48.1567 21.0749 -0.796648 0.107941 -0.317638 2.97215 1.5991 1.73571 -4.7129
66 Ge 72.64 1 33.4027 23.6721 8.20006 0.192106 1.65644 0.266265 4.8098 -0.029665 3.63418 -4.32232
67 Ge 72.64 1 29.9085 11.7767 23.7676 0.158613 -0.433859 0.554322 1.89969 2.48338 3.10923 -4.74454
68 Ge 72.64 1 32.8801 51.1408 11.7381 -0.466932 0.221053 0.0181847 -4.23483 -1.44901 -1.63058 -4.42592
69 Ge 72.64 1 63.6194 66.6517 56.8211 -1.1762 -0.278712 0.181976 3.90025 4.39129 -3.53565 -4.53024
70 Ge 72.64 1 3.02322 57.1772 30.2827 0.392482 -0.229248 0.0879918 0.195019 -3.17461 -0.0516549 -4.70877
71 Ge 72.64 1 36.4046 5.61006 71.7711 0.259716 0.365649 -0.194054 -0.907435 4.15945 0.509559 -4.81864
72 Ge 72.64 1 56.8363 5.74524 32.2944 0.330355 0.290205 0.277158 4.3849 -5.10421 -1.55437 -4.52675
73 Ge 72.64 1 50.9185 38.6861 12.218 -0.258212 0.114992 0.242945 -1.85165 -1.5739 2.53899 -4.48835
74 Ge 72.64 1 -0.0166022 56.9754 21.0923 -0.2742 -0.489182 0.0598542 -3.3726 3.52416 -0.564175 -4.6589
75 Ge 72.64 1 60.1187 6.04487 60.5195 0.151515 0.0740016 -0.663957 2.56906 3.6274 0.735285 -4.64979
76 Ge 72.64 1 66.1827 45.1633 15.3529 0.398261 -0.329149 0.0412707 1.66942 5.82906 -0.455392 -4.69464
77 Ge 72.64 1 45.1617 53.6026 15.1036 -0.602714 0.371759 -0.254632 -1.33918 3.19386 0.59226 -4.83042
78 Ge 72.64 1 57.6815 65.752 32.8238 -0.459576 0.371259 0.183704 -4.87163 -2.93235 3.03655 -4.72215
79 Ge 72.64 1 24.0405 9.24758 14.8787 -0.380735 -0.865808 0.571996 -0.138765 -1.54416 -3.6234 -4.71501
80 Ge 72.64 1 36.0558 5.99605 42.9167 -0.405881 0.397735 -1.18458 3.85306 0.515693 -1.28544 -4.71458
81 Ge 72.64 1 8.83729 57.2038 30.066 0.317355 0.146609 0.841519 0.311164 -1.59349 0.885794 -4.77154
82 Ge 72.64 1 32.9098 27.19 35.8 -0.295111 0.460006 -0.0501132 6.90561 -0.408261 -2.38063 -4.78411
83 Ge 72.64 1 18.3056 36.9657 24.2156 -0.302067 -0.532009 -0.121927 -0.852845 -3.35475 -0.605637 -4.59954
84 Ge 72.64 1 60.309 30.1149 23.7083 0.0654601 0.0639201 0.427064 2.23418 -1.82445 -1.26592 -4.65802
85 Ge 72.64 1 12.3329 62.9168 39.0502 -0.0835588 0.185862 0.234815 2.70366 -1.6543 2.42976 -4.63124
86 Ge 72.64 1 27.2671 45.0137 11.8015 -0.28574 -0.124433 1.03096 0.882946 2.10979 -0.042953 -4.71308
87 Ge 72.64 1 41.704 54.6392 24.1587 0.324159 -0.289583 0.13116 -2.0168 -8.12233 -0.105349 -4.41505
88 Ge 72.64 1 24.142 62.849 21.0808 0.376206 0.321058 0.278182 -3.55036 2.40167 -4.07111 -4.5902
89 Ge 72.64 1 33.0477 27.0312 54.1788 0.170206 0.544358 -0.601229 -4.0731 -0.768221 -1.70624 -4.76845
90 Ge 72.64 1 27.1996 51.3541 65.9913 0.134037 -1.46241 0.6133 -7.05498 4.6657 2.56006 -4.51235
91 Ge 72.64 1 18.0484 6.06798 0.276247 -0.0130639 -0.140045 -0.848095 1.46027 -4.7776 1.25447 -4.53634
92 Ge 72.64 1 38.831 17.6293 63.2039 -0.106168 -0.275755 0.168754 0.70941 3.29488 0.289485 -4.62147
93 Ge 72.64 1 27.1292 8.77712 36.1184 -1.03875 -0.191002 0.00670721 -2.80865 -0.375929 -3.94118 -4.65118
94 Ge 72.64 1 11.7438 27.4436 2.68734 1.26777 -0.170242 0.487741 1.19137 -0.196912 2.81665 -4.68279
95 Ge 72.64 1 41.9756 48.2411 17.8501 -0.368676 -1.44509 -0.607294 -1.26684 -5.36162 3.13707 -4.85363
96 Ge 72.64 1 69.1743 66.4329 21.0022 0.28482 -0.796921 -0.038842 3.31243 -2.89372 -0.557155 -4.562
97 Ge 72.64 1 60.6316 36.3418 29.6446 -0.272693 -0.088701 0.350235 -1.59253 -5.00189 3.60233 -4.46864
98 Ge 72.64 1 54.259 42.1623 36.0781 0.203595 0.470145 -0.27826 3.79357 0.78689 3.18173 -4.79493
99 Ge 72.64 1 48.1343 69.2818 15.465 -0.417667 0.290508 -0.309987 -1.63043 -0.710214 -0.850556 -4.76883
100 Ge 72.64 1 8.96395 9.10726 48.1576 0.0637179 0.40573 0.0403477 2.34505 4.15794 1.91069 -4.60326
101 Ge 72.64 1 5.67092 33.2825 9.26194 0.0521139 0.023425 0.1636 -1.27741 1.69259 3.0426 -4.47001
102 Ge 72.64 1 24.3772 71.9538 36.2342 -0.158303 -0.331463 -0.63837 -0.829072 -3.52771 0.138456 -4.76914
103 Ge 72.64 1 30.0651 45.3446 20.8396 0.0441137 -0.373278 0.672814 3.81732 -0.64948 2.93388 -4.56454
104 Ge 72.64 1 23.9734 30.6549 6.54844 -0.01734 -0.273969 -0.232801 -0.615186 2.17434 -0.312511 -4.63235
105 Ge 72.64 1 50.8288 23.8416 27.3008 0.0485848 0.0588436 -0.0344646 1.25516 1.53373 4.36761 -4.45285
106 Ge 72.64 1 21.3062 2.97479 23.8744 0.0378982 0.35275 0.27738 1.05757 -0.499512 -3.36929 -4.70569
107 Ge 72.64 1 6.07084 47.8308 41.5529 -0.00508375 -0.0780775 -0.0951255 0.135538 -4.83266 0.967898 -4.85057
108 Ge 72.64 1 57.3505 30.3018 68.8729 0.19951 -0.133087 0.182079 1.67884 -0.962346 0.713736 -4.78481
109 Ge 72.64 1 30.5889 39.339 62.9943 -1.0326 -0.705978 0.115915 1.00776 -4.49384 -1.08903 -4.74684
110 Ge 72.64 1 24.0214 65.8476 23.8147 0.168388 0.0528623 -0.184294 0.879501 -2.06235 1.6988 -4.46709
111 Ge 72.64 1 69.8934 51.0541 48.0521 -0.990992 0.12813 0.195351 1.94721 -0.794959 -3.31372 -4.39575
112 Ge 72.64 1 12.7421 57.0282 56.8112 -0.205372 -0.0248986 0.0253919 -1.18979 4.05209 -3.47341 -4.64962
113 Ge 72.64 1 60.2971 20.7032 27.2308 -0.19003 0.518843 -0.521617 3.109 0.602291 0.151253 -4.70185
114 Ge 72.64 1 33.4154 32.6712 66.073 -0.172382 -0.250006 0.841875 0.425289 0.108976 -0.847096 -4.69957
115 Ge 72.64 1 44.6433 71.9279 15.0799 0.746589 0.536158 0.277659 -0.683235 -1.25571 5.69853 -4.67396
116 Ge 72.64 1 27.0826 38.961 35.8077 -0.0183864 0.343653 0.0994178 0.250365 -3.75694 -7.33854 -4.62915
117 Ge 72.64 1 18.4858 68.888 57.3123 -0.0695751 0.287337 -0.353982 -1.98716 1.2726 1.75633 -4.70763
118 Ge 72.64 1 63.1833 62.684 0.127979 -0.133765 1.27305 0.0685753 2.15618 -1.74281 3.19288 -4.62605
119 Ge 72.64 1 2.96278 32.9322 41.9006 -0.098642 0.24102 0.898833 -0.783389 3.52926 -4.92754 -4.62682
120 Ge 72.64 1 45.4664 51.2168 29.8586 0.0140496 -0.278481 0.137124 1.47518 -2.20511 0.940288 -4.58365
121 Ge 72.64 1 66.4651 57.1723 15.2257 0.458475 0.699381 0.0502447 -3.66729 -1.2999 4.23423 -4.79745
122 Ge 72.64 1 39.0397 54.277 44.7256 0.109731 -0.0888341 0.382002 -3.67496 1.44265 -0.594189 -4.46835
123 Ge 72.64 1 60.1181 66.4309 66.2195 1.10764 0.129401 -0.0751145 -0.659612 1.59789 -2.3112 -4.74979
124 Ge 72.64 1 45.2545 2.94432 54.2534 0.329824 -0.139398 -0.159487 0.370897 -2.02177 -3.47601 -4.73469
125 Ge 72.64 1 54.3265 29.5692 41.4315 -0.292918 0.506977 0.600613 2.01177 -0.468829 -0.364111 -4.43364
126 Ge 72.64 1 35.4604 60.1454 23.7263 0.574936 -0.36245 0.0577811 1.63624 -0.837286 5.15806 -4.78778
127 Ge 72.64 1 48.6683 47.8323 54.0823 -0.00176745 -0.42159 0.314108 2.19331 2.98978 -1.59815 -4.76753
128 Ge 72.64 1 21.0123 39.0902 17.9926 0.227482 0.0609322 0.178926 0.0861624 2.26579 1.74791 -4.68672
129 Ge 72.64 1 39.3719 53.996 21.0585 -0.302995 -0.0246236 -0.0763208 6.50297 0.114913 0.468264 -4.61228
130 Ge 72.64 1 39.2473 5.77848 63.209 0.12176 -0.57619 0.667613 -0.45217 2.96744 -2.09559 -4.74901
131 Ge 72.64 1 5.91361 0.0705783 29.6027 -0.742923 0.425286 0.256411 -1.59257 0.884099 -3.57787 -4.64498
132 Ge 72.64 1 5.57376 60.1252 6.19184 -0.0121243 0.44677 -0.0526987 -1.02516 -5.74068 3.90836 -4.76902
133 Ge 72.64 1 24.107 3.10582 2.91944 -0.127148 -0.248658 -0.0632657 3.23741 -0.572621 -0.480141 -4.67141
134 Ge 72.64 1 29.6843 69.43 21.1893 0.149502 -0.321229 -0.0964632 2.16844 0.531718 1.11503 -4.55008
135 Ge 72.64 1 63.357 18.1377 63.0269 -0.0128561 -0.263178 -0.292445 -5.75138 -3.07507 3.257 -4.8055
136 Ge 72.64 1 24.1196 30.1583 66.3622 -0.0822809 0.374939 -0.280512 1.93466 2.20787 3.58362 -4.76885
137 Ge 72.64 1 36.5267 62.9922 32.9665 0.21182 -0.180326 -0.0712132 0.184599 -1.78488 5.96346 -4.64001
138 Ge 72.64 1 3.58649 48.2205 62.853 0.451734 -0.21566 0.732846 -0.715578 2.58327 2.55814 -4.83394
139 Ge 72.64 1 33.2286 29.5769 21.1775 0.0820085 0.823642 0.105016 -0.554954 1.43394 -1.48662 -4.60613
140 Ge 72.64 1 65.9031 3.36538 63.0458 0.492736 0.248238 0.641552 3.74395 0.849259 5.62389 -4.75638
141 Ge 72.64 1 11.9619 69.2342 27.4937 -0.451063 -0.414866 0.185786 -0.284887 5.77355 1.74709 -4.70323
142 Ge 72.64 1 36.2682 23.3006 5.78539 0.563544 0.591071 0.023017 -1.75381 2.36688 1.7104 -4.69536
143 Ge 72.64 1 29.6299 26.6155 45.5819 0.56677 0.585133 -1.37534 -1.43689 -2.34561 -2.27114 -4.54286
144 Ge 72.64 1 39.101 33.0362 47.8897 0.528281 -0.303852 -0.326253 1.99169 2.25166 -1.92229 -4.75027
145 Ge 72.64 1 32.8631 26.7347 29.5233 -0.145275 0.136238 0.741208 0.00884765 0.0941947 1.20958 -4.68488
146 Ge 72.64 1 35.3455 69.2605 15.2287 1.89484 -0.295754 -0.124057 -6.47062 -2.65932 2.66926 -4.42444
147 Ge 72.64 1 48.0684 66.2171 36.1703 -0.211042 -0.254276 -0.148607 0.243963 -0.883385 5.60848 -4.65352
148 Ge 72.64 1 2.97687 14.8798 24.2738 0.308543 -0.312196 -1.22098 -3.57702 -0.267984 0.384552 -4.64968
149 Ge 72.64 1 6.07567 53.6561 59.9095 -0.231298 0.153614 -0.0238705 -4.76424 -2.91242 -0.989988 -4.73276
150 Ge 72.64 1 9.44516 9.42009 17.6603 -0.488589 -0.294082 0.392467 0.445206 2.74513 -1.21064 -4.60811
151 Ge 72.64 1 66.0544 48.3787 12.179 0.745423 -0.0276376 -0.273627 4.36048 0.631192 1.45363 -4.50904
152 Ge 72.64 1 2.84655 36.0232 2.30264 -0.397364 -0.214258 1.42549 1.35724 1.34517 -2.19144 -4.67198
153 Ge 72.64 1 48.3228 66.1835 0.1694 0.114786 0.0288976 -0.0683267 0.29894 -4.15739 -0.421598 -4.83055
154 Ge 72.64 1 12.2314 9.31731 63.7671 -0.923773 0.386867 -0.75381 2.92514 4.80005 0.547075 -4.57347
155 Ge 72.64 1 42.2132 54.0024 59.6618 0.0697471 -0.283301 0.461637 3.14195 3.64144 -0.720071 -4.45765
156 Ge 72.64 1 44.9689 51.2398 53.8966 0.156385 0.0183532 -0.115967 2.13337 4.46837 2.93202 -4.88033
157 Ge 72.64 1 39.2329 17.8082 45.2222 0.48192 -0.121684 -0.0167665 -1.71491 0.339561 2.02068 -4.74504
158 Ge 72.64 1 27.1851 29.9404 14.6974 -0.081992 -0.151039 0.27291 -2.12317 -2.06803 -0.927217 -4.73932
159 Ge 72.64 1 33.1876 69.3555 18.1106 -0.172389 0.0787198 -0.102041 -0.0358296 1.80992 -0.00141384 -4.62186
160 Ge 72.64 1 6.12698 0.226203 54.117 -0.391125 -0.554336 -0.509703 2.68059 -2.74333 6.35696 -4.39384
161 Ge 72.64 1 57.1146 62.9454 30.0424 -0.20068 0.879635 0.0696688 -4.31958 -0.407664 -3.10053 -4.72954
162 Ge 72.64 1 20.8847 68.8203 48.2504 0.127795 0.110305 0.0758936 1.38018 -2.07042 -0.947281 -4.63824
163 Ge 72.64 1 3.04594 54.0803 63.0168 0.384111 -0.261411 0.363422 -2.69134 6.32595 1.12737 -4.47116
164 Ge 72.64 1 68.8579 3.53146 60.2242 0.297771 -0.124291 -0.243455 7.13203 -2.98014 -2.58675 -4.70831
165 Ge 72.64 1 11.8799 21.0601 15.105 0.177228 0.264492 -0.407188 -5.621 -1.18281 1.62191 -4.62973
166 Ge 72.64 1 56.9548 18.0436 38.534 0.161251 0.352973 0.300721 -1.57489 -1.33875 0.721916 -4.68743
167 Ge 72.64 1 63.0864 3.03589 36.3127 0.10147 0.316712 -0.644311 3.66902 -0.0117412 6.28147 -4.55467
168 Ge 72.64 1 20.8654 20.5045 18.4566 0.0355497 0.805075 -1.90359 -4.52405 1.65742 2.88179 -4.6367
169 Ge 72.64 1 15.3402 57.4899 59.5978 -0.55694 -0.30863 0.128651 -1.80143 -3.77075 -3.32676 -4.63997
170 Ge 72.64 1 24.3419 14.9602 57.4336 -0.0457006 -0.337572 0.0916416 -0.26351 3.07677 -0.521687 -4.3916
171 Ge 72.64 1 47.9964 12.1727 42.1846 -0.0718267 -0.256247 -0.416703 -3.65513 -2.14055 1.62361 -4.77261
172 Ge 72.64 1 15.0942 6.38685 51.0318 -0.0691248 0.0851233 -0.0847015 0.207112 -6.20496 0.827075 -4.62722
173 Ge 72.64 1 48.0998 18.3646 47.8923 0.25385 -0.544488 1.33133 1.7033 -4.23413 4.83084 -4.68178
174 Ge 72.64 1 51.054 69.3757 0.137056 -0.0325316 -0.402769 -0.658988 -0.928162 1.57963 -3.27538 -4.61857
175 Ge 72.64 1 2.8225 27.1957 48.0152 -0.307013 -0.00376762 -0.31543 5.25487 -0.827163 -1.09947 -4.77355
176 Ge 72.64 1 15.2513 65.9861 38.7695 0.359639 1.26155 -0.686588 -5.40713 -5.16945 -4.81859 -4.74663
177 Ge 72.64 1 51.5148 51.5719 30.0818 -0.359491 -0.0132698 0.207791 -3.63289 -0.838351 0.721138 -4.61113
178 Ge 72.64 1 3.22989 63.2094 29.9555 -0.0690179 0.208349 -0.649043 1.31601 1.00419 2.93786 -4.51525
179 Ge 72.64 1 18.3591 15.2373 69.0193 -0.311023 -0.358848 1.37409 1.76477 -0.676934 -1.1923 -4.84886
180 Ge 72.64 1 35.943 60.0665 60.0415 0.0251728 -0.808985 0.372446 0.571303 1.08994 2.12727 -4.705
181 Ge 72.64 1 29.9829 12.0991 30.5612 0.212847 0.478197 -0.159358 5.03479 -1.10402 -0.0224334 -4.61555
182 Ge 72.64 1 30.1543 48.6029 0.504894 -0.158678 -1.23474 -0.358703 1.01415 -4.41689 0.0153057 -4.52326
183 Ge 72.64 1 36.0357 57.305 9.03741 -0.123505 -0.0365614 -0.000660033 1.59485 2.49392 -1.49361 -4.66257
184 Ge 72.64 1 36.6067 39.3925 63.3653 -0.339609 -0.671376 -0.0105005 -1.43467 2.97724 -4.56445 -4.69448
185 Ge 72.64 1 42.2115 30.5691 53.6906 -0.547579 0.0584122 0.0314327 -4.93871 -2.27935 3.32225 -4.80303
186 Ge 72.64 1 36.0576 45.0497 2.77791 -0.362552 0.415349 -0.523597 0.0185312 1.96448 5.58173 -4.62708
187 Ge 72.64 1 23.6253 39.1666 9.33241 -0.596083 -0.663425 -1.2196 -1.9955 -0.238953 -2.41746 -4.68049
188 Ge 72.64 1 26.9555 33.176 11.3666 -0.861462 -0.278106 0.24488 0.0307557 -2.47107 -3.21726 -4.63804
189 Ge 72.64 1 62.9638 41.9301 68.9884 0.37783 -0.0276799 -0.211819 1.4991 -7.46914 -1.09949 -4.65724
190 Ge 72.64 1 0.189154 27.2488 27.2279 0.125114 0.015541 -0.90743 0.168996 3.32695 -0.866245 -4.53205
191 Ge 72.64 1 20.8191 66.1679 27.0105 0.415792 -0.0454823 -0.0284218 2.25788 1.85726 -2.48414 -4.63387
192 Ge 72.64 1 42.0993 47.8437 23.9055 -0.0215224 0.531961 -0.113494 1.28472 2.57972 -0.936905 -4.54128
193 Ge 72.64 1 72.0377 17.7999 65.913 0.423191 0.758745 0.300068 -0.106157 4.04473 0.157741 -4.64289
194 Ge 72.64 1 65.968 15.047 20.8378 0.495092 -0.0819339 -0.0400383 -1.6319 0.0376609 -1.73513 -4.7329
195 Ge 72.64 1 3.29458 11.8825 27.0693 -0.210195 0.363834 -0.165592 0.954364 -0.192829 1.62862 -4.7816
196 Ge 72.64 1 57.1899 71.6745 20.8336 0.024408 0.872191 1.3621 0.192882 -2.95478 -0.0977534 -4.7422
197 Ge 72.64 1 29.9408 26.8383 57.1422 0.362373 -0.311476 0.304803 -4.1339 0.641427 0.692736 -4.69666
198 Ge 72.64 1 62.9472 45.7081 66.4053 0.287011 -0.627376 -0.70151 -0.107463 -0.372771 -1.44014 -4.69732
199 Ge 72.64 1 26.8438 68.8592 18.2119 -0.550679 -0.154309 0.457046 0.259219 -0.803826 -4.13378 -4.55305
200 Ge 72.64 1 33.5044 11.9302 45.4131 0.250975 0.327498 -0.48564 -0.0876907 -2.37921 1.2015 -4.57325
201 Ge 72.64 1 51.4614 69.3387 53.8282 -0.557351 -0.489184 0.1 0.0145793 -0.64029 -1.74975 -4.59169
202 Ge 72.64 1 48.2535 14.6988 69.06 -0.0969919 0.125224 0.493915 -3.50882 -1.83483 -0.794651 -4.50152
203 Ge 72.64 1 63.022 32.801 0.206057 0.367071 0.0758954 -0.256721 -0.610343 -1.36051 3.19266 -4.65532
204 Ge 72.64 1 42.4189 0.294469 48.232 -0.235045 -0.0234737 -0.446651 0.0300471 3.42258 2.5102 -4.75298
205 Ge 72.64 1 21.1977 30.1985 9.49434 -0.198642 0.645949 0.205979 -4.08636 -3.58596 -2.35847 -4.69967
206 Ge 72.64 1 38.7986 23.7454 21.137 0.000266815 0.374562 0.483213 -1.65235 -2.49545 -3.05454 -4.6778
207 Ge 72.64 1 54.2512 42.1591 29.7642 0.0288964 0.892321 0.574133 1.86809 -2.31196 0.310992 -4.74093
208 Ge 72.64 1 36.1207 66.0993 30.2221 0.293563 -0.012386 -0.522981 -1.68919 -0.922858 0.00992648 -4.6202
209 Ge 72.64 1 39.3069 56.6562 29.889 -0.524972 0.442923 0.103808 0.423224 0.0952998 -0.163132 -4.56265
210 Ge 72.64 1 29.9202 3.17086 26.8777 0.0980829 -0.470982 -0.0171318 -2.41488 1.48807 -0.201544 -4.73679
211 Ge 72.64 1 3.19559 30.2946 33.1776 -0.196805 -1.40244 0.0495392 0.665795 -2.83346 2.75637 -4.72088
212 Ge 72.64 1 3.20272 24.0567 63.3201 0.173503 -0.910437 -0.212082 0.186509 -0.338915 2.19679 -4.72614
213 Ge 72.64 1 69.2987 29.963 27.2683 -0.0505374 0.665636 0.37856 3.58909 -1.35175 -1.93185 -4.67319
214 Ge 72.64 1 63.0503 0.18794 26.3358 0.35976 0.177397 -0.224855 2.01228 -2.49166 3.36993 -4.49932
215 Ge 72.64 1 45.1771 18.057 50.9826 0.476012 0.193111 -0.0261399 -0.762902 -0.153479 -7.21405 -4.78394
216 Ge 72.64 1 51.1442 0.35326 63.1411 -0.0764016 0.442735 -0.0856115 0.81692 0.00746579 -0.813778 -4.52327
217 Ge 72.64 1 8.91197 33.0629 42.3664 0.336007 -0.440952 -0.425358 -0.251147 -4.82238 2.83714 -4.65661
218 Ge 72.64 1 66.2077 30.1045 66.3591 0.152941 -0.0554327 0.17577 -4.38339 -0.341764 2.18653 -4.53744
219 Ge 72.64 1 33.3187 62.8362 53.7828 0.115174 0.429491 0.179281 4.20894 -3.10151 -1.41369 -4.56206
220 Ge 72.64 1 39.0624 50.7202 54.6314 0.1798 0.290841 -0.14122 4.80886 -1.83831 3.65177 -4.46035
221 Ge 72.64 1 17.4875 48.5531 65.929 0.0628445 -0.56617 1.12859 -1.45316 -0.0476787 -4.93437 -4.69248
222 Ge 72.64 1 11.719 69.3278 9.11758 0.397742 -0.239083 -0.722769 1.2901 2.36084 -3.64419 -4.83015
223 Ge 72.64 1 15.7193 53.9741 27.502 -0.852608 0.262786 -0.120297 -3.4777 -1.10888 4.89166 -4.60674
224 Ge 72.64 1 56.9545 48.3092 39.0543 0.205572 0.100953 0.317004 0.855154 -4.04935 -0.200318 -4.69957
225 Ge 72.64 1 57.0278 36.4934 14.9715 -0.401559 -0.220886 0.0962994 -1.33137 2.69936 -0.570131 -4.58636
226 Ge 72.64 1 35.8152 26.9724 50.6873 -0.029706 -0.213028 1.24349 3.88974 -2.68553 2.48808 -4.58157
227 Ge 72.64 1 20.8249 38.7452 5.79203 -0.087131 0.157967 0.25066 -4.5203 -2.95184 2.23972 -4.71877
228 Ge 72.64 1 30.2633 39.1386 56.8724 -0.11995 0.0160343 0.2026 3.11091 -3.50785 2.1538 -4.45071
229 Ge 72.64 1 50.6613 5.69673 20.9813 0.0801989 -0.0979931 0.577203 -1.60483 1.64807 -4.60306 -4.82292
230 Ge 72.64 1 27.3235 20.9714 47.791 -0.484277 -0.492357 0.0506916 0.415826 -0.126957 3.07966 -4.65947
231 Ge 72.64 1 3.64713 23.6433 57.1799 -0.834734 0.193382 0.357305 -3.49064 1.5197 2.07233 -4.60235
232 Ge 72.64 1 45.1031 23.5058 2.67409 1.09275 -0.341848 0.963306 1.83899 -0.0582767 -2.24707 -4.63446
233 Ge 72.64 1 12.0616 41.7864 18.4767 0.044552 0.619657 -0.468725 0.261406 -1.80541 1.83846 -4.74632
234 Ge 72.64 1 27.1048 69.4049 59.9199 -0.129074 -0.94639 0.569636 2.10221 -2.04684 -3.3548 -4.63576
235 Ge 72.64 1 47.5915 45.2825 2.82093 0.218904 -0.570197 -0.155291 -0.961033 -3.14722 -2.36149 -4.6666
236 Ge 72.64 1 0.255345 12.1317 65.595 0.12807 0.357966 0.133935 2.94947 -0.906532 -3.24978 -4.77112
237 Ge 72.64 1 29.7621 39.0785 20.3361 0.629763 0.267594 0.422717 -1.01021 0.997119 2.76767 -4.50177
238 Ge 72.64 1 51.0961 36.1945 32.5536 -0.121373 0.383304 0.17722 -2.54466 0.395337 3.36628 -4.50334
239 Ge 72.64 1 60.6616 24.5986 71.6505 -0.940179 0.397065 -0.137738 1.39702 2.12291 -1.72392 -4.7336
240 Ge 72.64 1 2.61137 2.71425 59.7559 -0.19135 -0.0424769 0.103611 0.740965 2.40982 1.18471 -4.64918
241 Ge 72.64 1 39.5578 48.2742 33.07 -0.0739665 -0.718316 -0.292868 4.87558 -3.42388 -3.73768 -4.63678
242 Ge 72.64 1 15.7622 36.4406 9.42952 -0.938414 0.215233 -0.238569 2.37736 -3.82065 -5.92359 -4.66505
243 Ge 72.64 1 54.1818 18.3294 41.565 0.355478 -0.417085 1.27505 0.57043 -3.17063 -3.48126 -4.6809
244 Ge 72.64 1 48.5937 63.0901 57.1287 -0.343614 -0.142659 -0.0929283 -0.551521 4.737 -0.672885 -4.49827
245 Ge 72.64 1 54.0492 36.0704 47.9691 -0.063141 -0.0512281 -0.0115337 2.42423 3.8052 -2.57691 -4.57323
246 Ge 72.64 1 17.5904 15.0714 44.7632 0.386388 -0.159162 0.30305 0.299802 -0.34772 7.25053 -4.69404
247 Ge 72.64 1 33.3879 65.9618 39.0538 0.0414375 -0.0455605 0.466962 3.94222 -2.34308 -2.48409 -4.50033
248 Ge 72.64 1 -0.0160368 42.0168 65.5333 0.253398 0.118213 0.0662022 -1.7653 2.67653 5.06001 -4.63618
249 Ge 72.64 1 21.3726 50.8525 60.5295 -0.136122 0.344077 -0.555699 0.572693 -0.271604 -0.13156 -4.63628
250 Ge 72.64 1 48.2779 17.8737 66.8062 -0.142416 0.190874 0.035493 -5.01917 1.42061 -1.59112 -4.61735
251 Ge 72.64 1 38.3366 38.9883 72.0085 0.729843 0.00939867 -0.017941 -3.33329 -0.67629 -1.99333 -4.51861
252 Ge 72.64 1 47.8589 32.7613 14.8428 -0.045844 0.269861 -0.9946 3.13115 -1.01577 0.887651 -4.60268
253 Ge 72.64 1 66.5918 45.1069 51.1634 -0.0179375 -0.0631965 0.152841 -3.45786 1.55395 1.94156 -4.60652
254 Ge 72.64 1 32.0863 23.8291 44.9479 0.774725 0.0621942 -0.0428248 3.74424 2.32346 -0.440105 -4.52651
255 Ge 72.64 1 51.0468 57.5426 36.2669 -0.475493 0.42704 0.321103 -1.69232 1.51342 -1.84307 -4.51656
256 Ge 72.64 1 50.9884 47.6776 68.702 -0.0568771 1.06098 0.684171 -0.228714 -0.438607 -2.66785 -4.76646
257 Ge 72.64 1 12.3857 65.9501 47.65 -0.303708 0.795352 0.199027 -3.07054 -0.424588 -1.96432 -4.50921
258 Ge 72.64 1 33.0993 54.3836 44.9267 0.374705 0.25216 -0.096164 -0.659928 0.534487 -0.39836 -4.57468
259 Ge 72.64 1 60.058 48.1723 54.1245 -0.0329211 -0.189008 -0.0521687 -0.130135 5.24706 5.11138 -4.6354
260 Ge 72.64 1 45.2129 2.80221 19.1021 0.104148 0.10715 -0.513486 -2.28996 -2.25234 2.50962 -4.66779
261 Ge 72.64 1 41.8237 30.1982 5.6137 0.24893 -0.839386 0.26993 2.06908 -4.15745 -2.12719 -4.54109
262 Ge 72.64 1 63.6385 63.1811 6.02202 -0.237397 -0.128353 -0.0148777 3.03027 -1.59579 -0.957822 -4.61324
263 Ge 72.64 1 66.203 48.433 60.2772 0.336717 0.037715 0.303205 -1.77432 -1.91669 1.90307 -4.4382
264 Ge 72.64 1 39.5623 8.60911 24.2274 -0.19295 0.585972 -1.14832 -3.52397 2.94378 -4.4518 -4.51822
265 Ge 72.64 1 3.1354 51.0779 12.3173 -0.416241 0.332958 -0.0716275 -2.63102 0.551855 4.90783 -4.78145
266 Ge 72.64 1 54.2841 53.8063 12.6975 -0.214825 0.110846 -0.551395 -0.958599 0.337485 -1.91701 -4.57339
267 Ge 72.64 1 36.4483 15.0208 14.9475 0.094815 -0.36084 0.147106 -1.34404 2.74274 -2.54921 -4.79616
268 Ge 72.64 1 8.86167 66.3632 2.54464 0.0663812 0.112457 1.40687 2.15936 3.20118 0.566237 -4.70023
269 Ge 72.64 1 48.1641 48.0242 65.3775 0.219015 -0.57941 0.240875 -2.15532 -4.96126 -1.05988 -4.61434
270 Ge 72.64 1 35.938 11.8251 48.3641 0.290971 0.275494 -0.729961 -0.968187 -1.52994 -3.26107 -4.4532
271 Ge 72.64 1 32.8477 33.3342 5.73785 -0.0872297 -0.409815 0.24012 -0.227279 2.54117 2.26895 -4.68814
272 Ge 72.64 1 51.0634 42.3415 63.4994 0.616513 0.311192 0.0683298 5.90814 -0.264782 -1.32733 -4.84738
273 Ge 72.64 1 69.3938 3.23779 23.4445 -0.0820677 -0.0740286 -0.106274 -6.91279 0.853257 3.40203 -4.61429
274 Ge 72.64 1 23.6523 18.3546 71.7224 0.679374 -0.0547549 0.659272 -1.64072 5.93223 2.82946 -4.81555
275 Ge 72.64 1 54.2841 9.09259 20.5802 0.22536 0.381243 0.508435 -1.1182 -2.50729 2.20385 -4.82061
276 Ge 72.64 1 65.9481 60.4953 11.8165 0.320582 -0.395237 0.54258 3.49625 0.87479 -3.48151 -4.61562
277 Ge 72.64 1 24.0059 50.9194 51.1274 -0.48457 0.848489 0.213697 0.756302 -0.366617 -2.81054 -4.737
278 Ge 72.64 1 9.57963 62.8516 53.5073 -0.501801 -0.0678636 0.261892 -3.38431 0.706037 6.91234 -4.39467
279 Ge 72.64 1 9.29307 66.0595 50.7891 0.0908791 -0.715399 0.0272471 0.0884502 -0.341039 -0.802276 -4.7121
280 Ge 72.64 1 48.206 6.34021 60.8809 0.283946 -0.37769 -1.11149 -0.306972 0.826755 -0.624868 -4.74263
281 Ge 72.64 1 26.7485 21.18 17.7866 0.31565 0.230729 0.147235 -2.91661 0.0025297 2.51591 -4.74411
282 Ge 72.64 1 9.25411 20.9192 72.1739 -0.814757 0.618205 0.104461 -0.210877 -5.22895 3.18913 -4.60661
283 Ge 72.64 1 8.84001 0.495492 44.9069 -0.122409 -0.0314857 -0.0461698 -1.65124 2.36797 0.880841 -4.53469
284 Ge 72.64 1 23.8032 18.2116 48.5386 0.661756 -0.294821 -0.753516 -0.300604 1.54421 -2.6373 -4.70018
285 Ge 72.64 1 42.4592 47.6739 59.9711 -0.191852 0.272438 -0.597789 1.94324 4.01889 1.57621 -4.57381
286 Ge 72.64 1 69.0384 57.4021 12.0846 0.0236007 0.0766857 0.722091 -2.42417 -0.0582278 -1.28475 -4.68805
287 Ge 72.64 1 57.1623 44.909 23.9941 -0.284963 0.426284 -0.312477 0.415158 -0.165183 0.45448 -4.74882
288 Ge 72.64 1 57.3847 30.006 8.9542 -0.82471 0.0235717 -0.102402 4.60841 0.00525631 3.87129 -4.66828
289 Ge 72.64 1 60.2815 51.3451 45.2976 0.192055 0.534418 0.00354681 -2.1787 4.63792 0.830039 -4.79397
290 Ge 72.64 1 21.0513 33.3304 11.9949 0.116929 -0.197499 -0.161135 2.31335 -0.576282 1.62249 -4.8317