# Converted from POSCAR to lammps format

12442 atoms
3 atom types

0.000000   72.169560   xlo xhi
0.000000   72.169560   ylo yhi
0.000000   72.169560   zlo zhi

  0.000000    0.000000    0.000000   xy xz yz

Atoms

   1  1      66.352300 8.768030 26.983100
   2  1      63.039100 12.023000 62.923800
   3  1      69.360400 30.245600 3.223790
   4  1      5.823440 51.453200 62.902800
   5  1      24.205200 54.122000 60.240500
   6  1      42.156100 21.265400 45.078800
   7  1      11.932300 9.198830 50.766300
   8  1      54.326100 39.075400 44.847900
   9  1      57.365900 62.527100 59.852900
  10  1      60.035800 3.402320 39.288100
  11  1      2.835760 -0.052034 15.291100
  12  1      39.117800 8.657100 60.484900
  13  1      18.209400 29.922600 35.554400
  14  1      68.900400 21.251600 17.558700
  15  1      69.146800 51.061300 18.010700
  16  1      54.290900 36.499800 72.027300
  17  1      60.332200 17.533300 11.858800
  18  1      42.273900 60.578100 6.443410
  19  1      36.232400 2.806400 69.043200
  20  1      57.142900 24.157100 68.888500
  21  1      36.143800 24.347100 60.101600
  22  1      15.062700 32.724800 18.177400
  23  1      66.553500 26.976800 38.787900
  24  1      14.974700 42.216300 63.090200
  25  1      29.910600 11.885500 66.032500
  26  1      26.883600 18.037100 39.237200
  27  1      9.256280 36.354800 27.228500
  28  1      29.885100 56.753500 38.937600
  29  1      44.819700 36.250900 33.419000
  30  1      36.488600 53.855600 54.035200
  31  1      65.968200 62.954900 69.433400
  32  1      9.005410 66.447900 8.682340
  33  1      15.130300 30.640100 69.338100
  34  1      68.797200 24.471900 33.171900
  35  1      42.243500 17.916700 36.265200
  36  1      48.198900 35.708500 71.799700
  37  1      45.260300 69.091500 41.866500
  38  1      66.096800 39.736300 9.025440
  39  1      69.239600 35.759200 51.216600
  40  1      65.977900 2.948320 21.369700
  41  1      57.954900 18.203000 8.734440
  42  1      38.845900 15.291400 30.039000
  43  1      5.666590 6.351720 36.302400
  44  1      30.449700 14.655100 45.257400
  45  1      32.752100 32.759000 41.773400
  46  1      14.717400 15.495600 23.851500
  47  1      8.880180 45.332900 65.904300
  48  1      57.315200 15.370700 60.475000
  49  1      29.974200 33.099600 8.793730
  50  1      69.024200 18.484900 69.258500
  51  1      54.323600 5.726430 17.938800
  52  1      69.357200 41.895900 27.392500
  53  1      62.977500 54.026000 9.088620
  54  1      23.804700 45.385100 32.786800
  55  1      21.023200 21.554400 54.175200
  56  1      9.308020 33.175500 30.219300
  57  1      5.935880 54.282000 5.982920
  58  1      63.575500 54.563800 15.005000
  59  1      0.113471 59.793100 35.970900
  60  1      29.965200 9.214050 51.158700
  61  1      33.035800 35.956000 15.058700
  62  1      26.538900 42.128800 33.222900
  63  1      11.645000 3.076300 63.354500
  64  1      57.318400 39.352900 54.191400
  65  1      33.356900 48.156700 21.074900
  66  1      33.402700 23.672100 8.200060
  67  1      29.908500 11.776700 23.767600
  68  1      32.880100 51.140800 11.738100
  69  1      63.619400 66.651700 56.821100
  70  1      3.023220 57.177200 30.282700
  71  1      36.404600 5.610060 71.771100
  72  1      56.836300 5.745240 32.294400
  73  1      50.918500 38.686100 12.218000
  74  1      -0.016602 56.975400 21.092300
  75  1      60.118700 6.044870 60.519500
  76  1      66.182700 45.163300 15.352900
  77  1      45.161700 53.602600 15.103600
  78  1      57.681500 65.752000 32.823800
  79  1      24.040500 9.247580 14.878700
  80  1      36.055800 5.996050 42.916700
  81  1      8.837290 57.203800 30.066000
  82  1      32.909800 27.190000 35.800000
  83  1      18.305600 36.965700 24.215600
  84  1      60.309000 30.114900 23.708300
  85  1      12.332900 62.916800 39.050200
  86  1      27.267100 45.013700 11.801500
  87  1      41.704000 54.639200 24.158700
  88  1      24.142000 62.849000 21.080800
  89  1      33.047700 27.031200 54.178800
  90  1      27.199600 51.354100 65.991300
  91  1      18.048400 6.067980 0.276247
  92  1      38.831000 17.629300 63.203900
  93  1      27.129200 8.777120 36.118400
  94  1      11.743800 27.443600 2.687340
  95  1      41.975600 48.241100 17.850100
  96  1      69.174300 66.432900 21.002200
  97  1      60.631600 36.341800 29.644600
  98  1      54.259000 42.162300 36.078100
  99  1      48.134300 69.281800 15.465000
 100  1      8.963950 9.107260 48.157600
 101  1      5.670920 33.282500 9.261940
 102  1      24.377200 71.953800 36.234200
 103  1      30.065100 45.344600 20.839600
 104  1      23.973400 30.654900 6.548440
 105  1      50.828800 23.841600 27.300800
 106  1      21.306200 2.974790 23.874400
 107  1      6.070840 47.830800 41.552900
 108  1      57.350500 30.301800 68.872900
 109  1      30.588900 39.339000 62.994300
 110  1      24.021400 65.847600 23.814700
 111  1      69.893400 51.054100 48.052100
 112  1      12.742100 57.028200 56.811200
 113  1      60.297100 20.703200 27.230800
 114  1      33.415400 32.671200 66.073000
 115  1      44.643300 71.927900 15.079900
 116  1      27.082600 38.961000 35.807700
 117  1      18.485800 68.888000 57.312300
 118  1      63.183300 62.684000 0.127979
 119  1      2.962780 32.932200 41.900600
 120  1      45.466400 51.216800 29.858600
 121  1      66.465100 57.172300 15.225700
 122  1      39.039700 54.277000 44.725600
 123  1      60.118100 66.430900 66.219500
 124  1      45.254500 2.944320 54.253400
 125  1      54.326500 29.569200 41.431500
 126  1      35.460400 60.145400 23.726300
 127  1      48.668300 47.832300 54.082300
 128  1      21.012300 39.090200 17.992600
 129  1      39.371900 53.996000 21.058500
 130  1      39.247300 5.778480 63.209000
 131  1      5.913610 0.070578 29.602700
 132  1      5.573760 60.125200 6.191840
 133  1      24.107000 3.105820 2.919440
 134  1      29.684300 69.430000 21.189300
 135  1      63.357000 18.137700 63.026900
 136  1      24.119600 30.158300 66.362200
 137  1      36.526700 62.992200 32.966500
 138  1      3.586490 48.220500 62.853000
 139  1      33.228600 29.576900 21.177500
 140  1      65.903100 3.365380 63.045800
 141  1      11.961900 69.234200 27.493700
 142  1      36.268200 23.300600 5.785390
 143  1      29.629900 26.615500 45.581900
 144  1      39.101000 33.036200 47.889700
 145  1      32.863100 26.734700 29.523300
 146  1      35.345500 69.260500 15.228700
 147  1      48.068400 66.217100 36.170300
 148  1      2.976870 14.879800 24.273800
 149  1      6.075670 53.656100 59.909500
 150  1      9.445160 9.420090 17.660300
 151  1      66.054400 48.378700 12.179000
 152  1      2.846550 36.023200 2.302640
 153  1      48.322800 66.183500 0.169400
 154  1      12.231400 9.317310 63.767100
 155  1      42.213200 54.002400 59.661800
 156  1      44.968900 51.239800 53.896600
 157  1      39.232900 17.808200 45.222200
 158  1      27.185100 29.940400 14.697400
 159  1      33.187600 69.355500 18.110600
 160  1      6.126980 0.226203 54.117000
 161  1      57.114600 62.945400 30.042400
 162  1      20.884700 68.820300 48.250400
 163  1      3.045940 54.080300 63.016800
 164  1      68.857900 3.531460 60.224200
 165  1      11.879900 21.060100 15.105000
 166  1      56.954800 18.043600 38.534000
 167  1      63.086400 3.035890 36.312700
 168  1      20.865400 20.504500 18.456600
 169  1      15.340200 57.489900 59.597800
 170  1      24.341900 14.960200 57.433600
 171  1      47.996400 12.172700 42.184600
 172  1      15.094200 6.386850 51.031800
 173  1      48.099800 18.364600 47.892300
 174  1      51.054000 69.375700 0.137056
 175  1      2.822500 27.195700 48.015200
 176  1      15.251300 65.986100 38.769500
 177  1      51.514800 51.571900 30.081800
 178  1      3.229890 63.209400 29.955500
 179  1      18.359100 15.237300 69.019300
 180  1      35.943000 60.066500 60.041500
 181  1      29.982900 12.099100 30.561200
 182  1      30.154300 48.602900 0.504894
 183  1      36.035700 57.305000 9.037410
 184  1      36.606700 39.392500 63.365300
 185  1      42.211500 30.569100 53.690600
 186  1      36.057600 45.049700 2.777910
 187  1      23.625300 39.166600 9.332410
 188  1      26.955500 33.176000 11.366600
 189  1      62.963800 41.930100 68.988400
 190  1      0.189154 27.248800 27.227900
 191  1      20.819100 66.167900 27.010500
 192  1      42.099300 47.843700 23.905500
 193  1      72.037700 17.799900 65.913000
 194  1      65.968000 15.047000 20.837800
 195  1      3.294580 11.882500 27.069300
 196  1      57.189900 71.674500 20.833600
 197  1      29.940800 26.838300 57.142200
 198  1      62.947200 45.708100 66.405300
 199  1      26.843800 68.859200 18.211900
 200  1      33.504400 11.930200 45.413100
 201  1      51.461400 69.338700 53.828200
 202  1      48.253500 14.698800 69.060000
 203  1      63.022000 32.801000 0.206057
 204  1      42.418900 0.294469 48.232000
 205  1      21.197700 30.198500 9.494340
 206  1      38.798600 23.745400 21.137000
 207  1      54.251200 42.159100 29.764200
 208  1      36.120700 66.099300 30.222100
 209  1      39.306900 56.656200 29.889000
 210  1      29.920200 3.170860 26.877700
 211  1      3.195590 30.294600 33.177600
 212  1      3.202720 24.056700 63.320100
 213  1      69.298700 29.963000 27.268300
 214  1      63.050300 0.187940 26.335800
 215  1      45.177100 18.057000 50.982600
 216  1      51.144200 0.353260 63.141100
 217  1      8.911970 33.062900 42.366400
 218  1      66.207700 30.104500 66.359100
 219  1      33.318700 62.836200 53.782800
 220  1      39.062400 50.720200 54.631400
 221  1      17.487500 48.553100 65.929000
 222  1      11.719000 69.327800 9.117580
 223  1      15.719300 53.974100 27.502000
 224  1      56.954500 48.309200 39.054300
 225  1      57.027800 36.493400 14.971500
 226  1      35.815200 26.972400 50.687300
 227  1      20.824900 38.745200 5.792030
 228  1      30.263300 39.138600 56.872400
 229  1      50.661300 5.696730 20.981300
 230  1      27.323500 20.971400 47.791000
 231  1      3.647130 23.643300 57.179900
 232  1      45.103100 23.505800 2.674090
 233  1      12.061600 41.786400 18.476700
 234  1      27.104800 69.404900 59.919900
 235  1      47.591500 45.282500 2.820930
 236  1      0.255345 12.131700 65.595000
 237  1      29.762100 39.078500 20.336100
 238  1      51.096100 36.194500 32.553600
 239  1      60.661600 24.598600 71.650500
 240  1      2.611370 2.714250 59.755900
 241  1      39.557800 48.274200 33.070000
 242  1      15.762200 36.440600 9.429520
 243  1      54.181800 18.329400 41.565000
 244  1      48.593700 63.090100 57.128700
 245  1      54.049200 36.070400 47.969100
 246  1      17.590400 15.071400 44.763200
 247  1      33.387900 65.961800 39.053800
 248  1      -0.016037 42.016800 65.533300
 249  1      21.372600 50.852500 60.529500
 250  1      48.277900 17.873700 66.806200
 251  1      38.336600 38.988300 72.008500
 252  1      47.858900 32.761300 14.842800
 253  1      66.591800 45.106900 51.163400
 254  1      32.086300 23.829100 44.947900
 255  1      51.046800 57.542600 36.266900
 256  1      50.988400 47.677600 68.702000
 257  1      12.385700 65.950100 47.650000
 258  1      33.099300 54.383600 44.926700
 259  1      60.058000 48.172300 54.124500
 260  1      45.212900 2.802210 19.102100
 261  1      41.823700 30.198200 5.613700
 262  1      63.638500 63.181100 6.022020
 263  1      66.203000 48.433000 60.277200
 264  1      39.562300 8.609110 24.227400
 265  1      3.135400 51.077900 12.317300
 266  1      54.284100 53.806300 12.697500
 267  1      36.448300 15.020800 14.947500
 268  1      8.861670 66.363200 2.544640
 269  1      48.164100 48.024200 65.377500
 270  1      35.938000 11.825100 48.364100
 271  1      32.847700 33.334200 5.737850
 272  1      51.063400 42.341500 63.499400
 273  1      69.393800 3.237790 23.444500
 274  1      23.652300 18.354600 71.722400
 275  1      54.284100 9.092590 20.580200
 276  1      65.948100 60.495300 11.816500
 277  1      24.005900 50.919400 51.127400
 278  1      9.579630 62.851600 53.507300
 279  1      9.293070 66.059500 50.789100
 280  1      48.206000 6.340210 60.880900
 281  1      26.748500 21.180000 17.786600
 282  1      9.254110 20.919200 72.173900
 283  1      8.840010 0.495492 44.906900
 284  1      23.803200 18.211600 48.538600
 285  1      42.459200 47.673900 59.971100
 286  1      69.038400 57.402100 12.084600
 287  1      57.162300 44.909000 23.994100
 288  1      57.384700 30.006000 8.954200
 289  1      60.281500 51.345100 45.297600
 290  1      21.051300 33.330400 11.994900
 291  1      9.099220 69.017100 24.630400
 292  1      24.135500 39.698000 21.121000
 293  1      36.015200 9.415130 51.032700
 294  1      21.150500 6.030310 27.245800
 295  1      45.029000 36.223900 2.907370
 296  1      41.943400 30.567300 36.047800
 297  1      33.075600 6.084080 51.030300
 298  1      47.693500 24.538500 54.211700
 299  1      17.634400 18.068500 18.169900
 300  1      54.242800 36.560100 35.709400
 301  1      47.900400 48.313700 71.902800
 302  1      12.321600 36.350600 54.175700
 303  1      63.248400 26.100400 5.343790
 304  1      60.194300 71.942000 6.278640
 305  1      18.288700 17.993300 35.896100
 306  1      63.040600 14.872200 66.002800
 307  1      57.249600 33.091700 65.569400
 308  1      53.909700 15.093000 51.033200
 309  1      66.107100 3.140670 3.260990
 310  1      5.803010 33.019700 32.960100
 311  1      54.280500 66.751400 0.433431
 312  1      20.425400 29.628000 26.990900
 313  1      29.907700 32.682900 26.936000
 314  1      41.633900 9.545820 57.373000
 315  1      36.932100 23.995100 0.038632
 316  1      66.143500 17.932200 11.994600
 317  1      60.142800 6.036920 17.870300
 318  1      17.675100 9.498050 27.148400
 319  1      35.974700 38.869400 69.078800
 320  1      50.482800 59.996400 69.459700
 321  1      30.379500 32.930200 51.330500
 322  1      5.797780 42.315900 12.199300
 323  1      39.206200 41.953600 68.961500
 324  1      56.819700 20.823800 23.473600
 325  1      12.392000 2.929620 69.267100
 326  1      6.052310 0.548314 17.956700
 327  1      48.239600 36.137700 54.057800
 328  1      50.988400 14.870100 23.870100
 329  1      54.271000 8.904650 45.263700
 330  1      12.192400 66.196000 18.057700
 331  1      21.154700 9.102260 36.602400
 332  1      51.543000 8.957640 18.013800
 333  1      2.957240 57.158300 11.884900
 334  1      63.123000 57.704100 23.945800
 335  1      35.789100 26.689400 27.384000
 336  1      5.755160 48.054200 29.905900
 337  1      39.357600 59.823300 32.979900
 338  1      57.543300 27.205900 71.611300
 339  1      60.442700 17.694600 47.711500
 340  1      29.722400 8.504500 45.625700
 341  1      54.039300 33.247200 15.121600
 342  1      48.057900 24.220800 18.412400
 343  1      3.174840 50.849200 60.161400
 344  1      48.738400 9.777180 26.688400
 345  1      42.494100 2.907500 45.438700
 346  1      3.589840 41.822000 21.252300
 347  1      60.277100 0.269112 54.174100
 348  1      62.972500 3.100520 24.132900
 349  1      24.189000 2.976760 33.198400
 350  1      69.171400 59.770600 45.324000
 351  1      69.539700 69.183700 23.679200
 352  1      18.461300 32.677700 27.251300
 353  1      36.217100 71.796100 6.165920
 354  1      33.207500 66.303000 51.273900
 355  1      42.297100 60.187600 47.893100
 356  1      44.636400 2.990910 60.717400
 357  1      36.380800 23.626700 11.781200
 358  1      6.012560 30.271600 17.720200
 359  1      20.778300 27.364300 12.179300
 360  1      17.848400 24.268600 47.804200
 361  1      69.288100 0.172561 20.754800
 362  1      36.319800 66.020300 54.371900
 363  1      51.663100 20.409800 5.795840
 364  1      14.867900 32.988300 36.345700
 365  1      3.233900 45.400000 72.066600
 366  1      39.134300 59.558100 3.066470
 367  1      60.218400 3.107380 3.130620
 368  1      66.729200 69.023200 38.715900
 369  1      2.759270 15.589300 11.565000
 370  1      69.442600 53.929400 69.272900
 371  1      39.016200 11.393100 63.523300
 372  1      69.586600 60.230700 15.223100
 373  1      53.967400 36.132000 24.325000
 374  1      60.132800 17.985900 36.493400
 375  1      30.066000 51.159800 69.345300
 376  1      66.506600 53.790800 30.175400
 377  1      6.431440 56.975300 39.029800
 378  1      29.934800 60.098200 36.282200
 379  1      15.115700 35.842200 33.664300
 380  1      27.064700 69.230000 48.852000
 381  1      21.031700 51.337800 11.981700
 382  1      63.055900 3.649200 60.578400
 383  1      62.957400 6.352730 27.294700
 384  1      35.971300 57.163700 45.268700
 385  1      41.609600 62.994000 9.805450
 386  1      41.911100 3.115750 20.972800
 387  1      48.865300 57.388700 27.409800
 388  1      2.869630 15.021000 5.641700
 389  1      -0.147557 48.447900 72.013800
 390  1      48.705000 18.025900 36.081100
 391  1      69.212800 39.186800 23.863700
 392  1      24.065100 -0.069281 60.011500
 393  1      63.036800 12.278400 56.878300
 394  1      65.796000 69.632800 69.356900
 395  1      42.088400 63.061900 69.392600
 396  1      12.360300 51.137300 51.023800
 397  1      15.271500 30.347200 15.471800
 398  1      12.109900 20.882100 39.328400
 399  1      60.088900 23.901400 5.735820
 400  1      44.889600 71.890500 45.115700
 401  1      50.661500 26.600600 5.787250
 402  1      11.848100 8.965410 69.690800
 403  1      57.041800 38.663100 60.158200
 404  1      54.343600 18.226500 11.799200
 405  1      66.211600 3.005530 45.386100
 406  1      20.707000 8.845620 0.279854
 407  1      6.471430 27.160600 33.059800
 408  1      2.701100 27.411900 66.632200
 409  1      69.334000 48.281300 26.668700
 410  1      63.137800 51.348900 71.861600
 411  1      51.224000 6.181010 14.972200
 412  1      62.689200 8.579520 17.792000
 413  1      12.440200 35.958700 12.362900
 414  1      42.064400 15.249800 33.019100
 415  1      0.004417 18.016100 5.933440
 416  1      66.442300 12.119500 35.868500
 417  1      11.819000 72.044200 18.004400
 418  1      56.911500 5.851440 44.854500
 419  1      33.306800 5.794640 33.184200
 420  1      50.953800 69.499300 18.286100
 421  1      32.644600 48.184600 50.681100
 422  1      36.088300 17.535400 11.517100
 423  1      26.965800 0.296746 26.975000
 424  1      17.776100 18.045100 6.269040
 425  1      32.667600 12.059600 33.278400
 426  1      45.564400 53.955700 32.904300
 427  1      40.061000 24.221400 69.361600
 428  1      60.528600 20.467600 50.693000
 429  1      45.290700 36.273300 44.821000
 430  1      27.107500 36.212400 63.107100
 431  1      36.295900 26.597200 33.423600
 432  1      9.292370 26.528700 29.818600
 433  1      51.317300 5.645620 51.288800
 434  1      47.950800 14.811200 32.553200
 435  1      42.128500 36.286700 18.162300
 436  1      45.001900 38.590900 23.412100
 437  1      26.796000 3.182800 11.924600
 438  1      29.936600 45.189300 33.178800
 439  1      68.890400 24.069600 27.011400
 440  1      39.171400 20.646800 0.175441
 441  1      51.198500 3.276650 41.922100
 442  1      45.428700 50.575400 59.613100
 443  1      71.883500 3.065980 9.053840
 444  1      21.330700 65.771300 62.929100
 445  1      12.004300 3.305950 51.375800
 446  1      69.169100 21.375400 35.789900
 447  1      60.724700 18.181900 65.802100
 448  1      60.212300 8.811600 62.792400
 449  1      38.640200 60.492600 15.161100
 450  1      66.139800 68.467300 50.971600
 451  1      11.777300 27.042600 38.557500
 452  1      51.024000 9.295800 66.558300
 453  1      33.179200 63.106700 35.863100
 454  1      9.035650 68.802100 30.254000
 455  1      56.852700 30.018800 21.109700
 456  1      24.025900 62.586300 15.457000
 457  1      51.264400 56.942100 18.178100
 458  1      68.655800 15.223600 12.067100
 459  1      17.616300 57.012000 63.048300
 460  1      8.514840 9.463370 65.960300
 461  1      45.131300 39.325300 5.872700
 462  1      6.048000 38.985100 33.127200
 463  1      63.457000 50.880000 59.994400
 464  1      54.491300 63.510100 69.187300
 465  1      71.936400 66.291000 72.095500
 466  1      2.619650 8.986060 12.134300
 467  1      53.697200 17.873600 5.999660
 468  1      63.211800 71.958900 33.004100
 469  1      53.847100 11.958700 66.385500
 470  1      57.332500 2.949300 60.592500
 471  1      27.194300 26.985800 6.037080
 472  1      18.282900 15.083400 33.112600
 473  1      36.334100 47.886100 12.026000
 474  1      50.843300 71.743500 50.918900
 475  1      36.312500 57.009400 57.316000
 476  1      27.002000 59.384800 15.440100
 477  1      18.152400 41.895500 71.986600
 478  1      38.956600 32.839700 35.838600
 479  1      0.236210 14.700400 20.619600
 480  1      63.935500 23.509000 50.695300
 481  1      26.821900 41.954200 63.566300
 482  1      69.347100 30.226400 44.911700
 483  1      15.054800 60.335700 45.177100
 484  1      8.975260 51.110000 18.076300
 485  1      47.600100 69.115400 27.289900
 486  1      63.122600 33.432400 23.459500
 487  1      48.064200 6.109790 36.124700
 488  1      60.378900 9.069450 20.836000
 489  1      44.917700 0.396694 51.089600
 490  1      68.611500 57.511900 0.441390
 491  1      17.873900 38.958700 44.899900
 492  1      33.099600 50.926100 66.837700
 493  1      29.904100 29.745200 23.958200
 494  1      3.030820 35.811400 21.519000
 495  1      12.257000 60.437700 47.719700
 496  1      39.173800 51.469900 72.003900
 497  1      59.882800 45.081300 63.127400
 498  1      12.263900 33.163000 14.927600
 499  1      48.317500 50.991400 33.215700
 500  1      45.230400 66.196400 56.997000
 501  1      18.030400 47.821600 42.302000
 502  1      0.204047 33.145800 50.975500
 503  1      51.295800 3.391240 12.292500
 504  1      47.677500 21.232800 56.976700
 505  1      20.794500 57.246300 30.366100
 506  1      65.827100 20.966900 56.671700
 507  1      23.938000 9.169530 69.061400
 508  1      26.531100 36.588100 68.903200
 509  1      60.346600 12.385800 42.411400
 510  1      5.823220 33.010600 38.983400
 511  1      66.362700 2.996860 38.723700
 512  1      23.761800 68.960600 45.709000
 513  1      69.496200 60.304300 3.469000
 514  1      15.462400 12.099900 57.277100
 515  1      47.865400 35.954200 41.954200
 516  1      57.295900 30.322100 63.262400
 517  1      42.353100 12.342000 54.791400
 518  1      42.125700 66.394900 54.069000
 519  1      59.834900 30.358600 11.623300
 520  1      66.247300 17.851300 5.964370
 521  1      27.323400 54.016400 21.089500
 522  1      41.902900 8.657990 3.010090
 523  1      11.814500 54.069100 30.721500
 524  1      62.946700 35.951200 51.333400
 525  1      11.501600 48.318900 36.682600
 526  1      20.935200 63.201500 48.063400
 527  1      30.363100 17.876700 6.079120
 528  1      15.051200 38.772400 60.237600
 529  1      32.752700 0.142964 51.285100
 530  1      47.961200 32.890900 68.948400
 531  1      39.466700 30.163800 9.140610
 532  1      8.345500 54.073000 15.093100
 533  1      45.196500 9.153090 30.349100
 534  1      59.776900 72.090800 66.215200
 535  1      57.312000 66.340600 3.055670
 536  1      41.701100 50.895300 39.102700
 537  1      69.615900 9.049530 41.714600
 538  1      49.054500 6.348160 41.975900
 539  1      45.290900 8.538880 11.800100
 540  1      38.758300 51.105200 5.591520
 541  1      20.861600 12.443900 9.242700
 542  1      57.343900 45.157900 12.535300
 543  1      42.271700 57.192800 57.482300
 544  1      23.739200 12.161500 48.201800
 545  1      0.351274 57.028300 27.202800
 546  1      38.763100 66.436400 8.938430
 547  1      9.440490 6.086360 39.385000
 548  1      12.049000 54.443900 65.753900
 549  1      29.981500 21.000000 57.245600
 550  1      17.990100 56.553700 3.141700
 551  1      12.035800 54.394100 5.723150
 552  1      57.694000 33.279000 30.128800
 553  1      8.782200 3.121220 5.442870
 554  1      60.741400 54.034500 54.209000
 555  1      48.083600 72.143700 35.905200
 556  1      41.889800 17.766500 12.281800
 557  1      38.990000 42.108900 9.216640
 558  1      48.320200 36.382800 65.631100
 559  1      71.762700 36.763800 41.599900
 560  1      6.270100 33.335700 45.029900
 561  1      45.157300 11.631000 9.091470
 562  1      23.438600 21.007000 26.577600
 563  1      15.279200 15.176400 30.309400
 564  1      47.998300 8.809490 39.160000
 565  1      54.379700 20.976800 63.534100
 566  1      12.062600 54.212800 71.910600
 567  1      66.409400 36.008300 54.134600
 568  1      63.331000 29.857000 50.849100
 569  1      45.115700 47.927800 68.289900
 570  1      69.438500 54.054500 2.945020
 571  1      72.016900 53.959800 72.136700
 572  1      54.482200 63.423800 39.618500
 573  1      69.307700 38.671600 54.338000
 574  1      42.351600 14.065500 9.435860
 575  1      66.108900 60.344200 30.168300
 576  1      18.364400 21.147300 21.074500
 577  1      3.135140 42.746700 51.472100
 578  1      42.319300 48.122500 53.911200
 579  1      0.257766 62.991400 15.221200
 580  1      47.971100 56.963300 8.501510
 581  1      8.861840 20.896100 17.783300
 582  1      24.258800 15.129100 69.208500
 583  1      14.959800 21.139400 23.859500
 584  1      12.781500 66.121300 60.189300
 585  1      18.328300 66.184900 60.127200
 586  1      69.497100 30.177800 62.750900
 587  1      72.114800 69.205800 45.347000
 588  1      36.173200 62.859300 45.140800
 589  1      14.674400 11.610500 20.619600
 590  1      39.037100 11.783000 69.530300
 591  1      63.557300 44.903500 42.156900
 592  1      27.561400 45.059300 54.031400
 593  1      65.993800 36.041300 23.926700
 594  1      21.245400 59.938700 27.372500
 595  1      63.532800 11.890200 45.100900
 596  1      14.628400 21.492800 12.023900
 597  1      9.054470 45.177000 54.149600
 598  1      12.217600 60.729000 29.982200
 599  1      30.248900 5.457020 0.132859
 600  1      14.864300 29.583200 21.596300
 601  1      15.157200 17.600000 62.994500
 602  1      3.185870 15.228300 35.521300
 603  1      0.230960 14.864500 51.008600
 604  1      32.871900 8.863210 48.286800
 605  1      62.902700 20.813500 47.825100
 606  1      60.076500 60.527500 30.202700
 607  1      9.001690 45.506000 0.154246
 608  1      15.237700 54.378700 45.060500
 609  1      35.997900 9.214270 45.361600
 610  1      71.854400 24.039600 24.087100
 611  1      45.179800 20.529500 36.255900
 612  1      42.464200 24.250600 42.463300
 613  1      48.364300 8.984490 32.961300
 614  1      45.143100 44.892600 42.590500
 615  1      38.975300 30.020000 50.659000
 616  1      63.200800 30.134100 44.887800
 617  1      36.281900 71.816400 0.134630
 618  1      30.271500 27.079400 8.931180
 619  1      35.936400 21.147100 38.935000
 620  1      27.160200 29.439800 44.647200
 621  1      26.684700 66.191000 33.576900
 622  1      54.288900 63.178000 21.311400
 623  1      6.200150 30.154900 0.047186
 624  1      6.243480 45.144700 63.159500
 625  1      39.428100 39.334700 60.825900
 626  1      26.680400 3.279980 29.773000
 627  1      21.058800 8.611780 11.839800
 628  1      38.658200 60.000400 26.901600
 629  1      3.571850 51.386700 30.238000
 630  1      69.109500 35.801800 57.253800
 631  1      48.226500 51.108300 2.611470
 632  1      0.166943 59.926700 72.112200
 633  1      36.488300 57.287200 15.086400
 634  1      44.597600 20.671400 23.807600
 635  1      66.092400 32.630900 44.933000
 636  1      11.890200 51.372100 63.037800
 637  1      12.097200 6.317830 42.260400
 638  1      57.086000 45.270100 65.875800
 639  1      33.166300 9.056660 23.781400
 640  1      3.024660 17.982700 8.622440
 641  1      35.991600 68.926600 33.279100
 642  1      51.663900 17.710000 9.325410
 643  1      27.368100 68.948100 66.115800
 644  1      18.011600 47.672900 24.052500
 645  1      6.353010 45.272100 3.054560
 646  1      63.053100 21.448500 72.041400
 647  1      51.257700 11.922300 69.333200
 648  1      65.963600 57.191300 51.556700
 649  1      71.680900 24.313100 54.023500
 650  1      53.915800 45.082100 2.952400
 651  1      63.211900 32.951300 65.810000
 652  1      63.040800 38.850700 0.092879
 653  1      20.971900 42.005900 51.140100
 654  1      47.747200 12.139400 35.880700
 655  1      42.072800 20.866700 33.041500
 656  1      36.148100 8.988850 14.716900
 657  1      48.137100 39.059800 20.266400
 658  1      26.928900 48.780400 2.914110
 659  1      15.289900 44.941000 24.107500
 660  1      32.978500 5.987920 45.655000
 661  1      20.958800 72.120500 33.066500
 662  1      8.598100 69.130600 11.904000
 663  1      27.626800 3.064900 6.495470
 664  1      60.423700 30.552400 60.431700
 665  1      27.242600 42.103700 14.775900
 666  1      27.204400 35.913100 38.983300
 667  1      17.941700 30.064500 12.311700
 668  1      0.390472 6.027200 5.998930
 669  1      53.740000 9.320150 69.752100
 670  1      38.746200 38.910300 12.152800
 671  1      21.190300 0.217709 51.076700
 672  1      5.944920 53.827400 29.997100
 673  1      51.327500 27.071500 36.397500
 674  1      53.628900 63.079000 27.172700
 675  1      14.768200 47.894100 8.952160
 676  1      50.924100 71.966400 26.889300
 677  1      17.920700 15.246200 27.154200
 678  1      9.277810 51.276600 60.238100
 679  1      48.134900 57.238800 33.241800
 680  1      21.091800 65.651400 2.752140
 681  1      6.370780 63.147500 51.038500
 682  1      6.174080 21.181900 44.737700
 683  1      3.062660 50.995000 71.929200
 684  1      48.068200 30.300100 18.018300
 685  1      62.781400 35.807900 45.343200
 686  1      24.134600 69.600800 56.915400
 687  1      21.423100 54.476500 50.953600
 688  1      12.084900 59.932600 59.985500
 689  1      42.105800 18.183300 48.384300
 690  1      36.142800 50.849300 2.883910
 691  1      6.035490 50.320700 57.099500
 692  1      41.913100 24.088100 59.613200
 693  1      15.045900 26.673900 60.051400
 694  1      39.632400 17.589300 3.087700
 695  1      8.695670 36.000300 39.340300
 696  1      51.759500 5.685620 39.109400
 697  1      15.392600 32.824200 30.521200
 698  1      17.990000 27.394600 9.287810
 699  1      44.956100 24.146900 56.839600