<?xml version="1.0" encoding="ISO-8859-1"?>
<modeling>
 <generator>
  <i name="program" type="string">vasp </i>
  <i name="version" type="string">5.4.4.18Apr17-6-g9f103f2a35  </i>
  <i name="subversion" type="string">(build Apr 21 2021 12:29:50) complex            parallel </i>
  <i name="platform" type="string">LinuxIFC </i>
  <i name="date" type="string">2021 05 26 </i>
  <i name="time" type="string">17:31:19 </i>
 </generator>
 <incar>
  <i type="string" name="SYSTEM">ge_ran</i>
  <i type="int" name="ISTART">     0</i>
  <i type="string" name="PREC">a      ! determines the energy</i>
  <i type="int" name="IALGO">    38</i>
  <i type="int" name="ISPIN">     1</i>
  <i type="int" name="ICHARG">     2</i>
  <i type="int" name="NELM">   200</i>
  <i name="EDIFF">      0.00000001</i>
  <i type="int" name="ISIF">     3</i>
  <i type="int" name="ISYM">     2</i>
  <i name="ENCUT">    400.00000000</i>
  <i type="int" name="ISMEAR">     0</i>
  <i name="SIGMA">      0.05000000</i>
  <i name="KSPACING">      0.14000000</i>
  <i type="logical" name="KGAMMA"> T  </i>
  <i type="logical" name="LWAVE"> F  </i>
  <i type="logical" name="LCHARG"> F  </i>
  <v type="int" name="KPOINT_BSE">    -1     0     0     0</v>
  <i type="int" name="NELM">   200</i>
  <i type="string" name="GGA">        PE      ! 91:Perdew-Wang91 | PE:</i>
  <i type="logical" name="LEPSILON"> T  </i>
 </incar>
 <structure name="primitive_cell" >
  <crystal>
   <varray name="basis" >
    <v>       4.41234324       0.00000000       0.00000000 </v>
    <v>       2.38904645      -3.70961318       0.00000000 </v>
    <v>       2.38904645      -1.30303344      -3.47323103 </v>
   </varray>
   <i name="volume">     56.85014637 </i>
   <varray name="rec_basis" >
    <v>       0.22663695       0.14595759       0.10113309 </v>
    <v>       0.00000000      -0.26956989       0.10113309 </v>
    <v>       0.00000000       0.00000000      -0.28791635 </v>
   </varray>
  </crystal>
  <varray name="positions" >
   <v>       0.00000000       0.00000000       0.00000000 </v>
   <v>       0.46672013       0.46672013       0.46672013 </v>
  </varray>
 </structure>
 <varray name="primitive_index" >
  <v type="int" >        1 </v>
  <v type="int" >        2 </v>
 </varray>
 <kpoints>
  <generation param="Gamma">
   <v type="int" name="divisions">      13       13       13 </v>
   <v name="usershift">      0.00000000       0.00000000       0.00000000 </v>
   <v name="genvec1">      0.07692308       0.00000000       0.00000000 </v>
   <v name="genvec2">      0.00000000       0.07692308      -0.00000000 </v>
   <v name="genvec3">      0.00000000       0.00000000       0.07692308 </v>
   <v name="shift">      0.00000000       0.00000000       0.00000000 </v>
  </generation>
  <varray name="kpointlist" >
   <v>       0.00000000       0.00000000       0.00000000 </v>
   <v>       0.07692308       0.00000000       0.00000000 </v>
   <v>       0.15384615       0.00000000       0.00000000 </v>
   <v>       0.23076923       0.00000000      -0.00000000 </v>
   <v>       0.30769231       0.00000000       0.00000000 </v>
   <v>       0.38461538       0.00000000      -0.00000000 </v>
   <v>       0.46153846       0.00000000      -0.00000000 </v>
   <v>       0.07692308       0.07692308       0.00000000 </v>
   <v>       0.15384615       0.07692308      -0.00000000 </v>
   <v>       0.23076923       0.07692308      -0.00000000 </v>
   <v>       0.30769231       0.07692308       0.00000000 </v>
   <v>       0.38461538       0.07692308      -0.00000000 </v>
   <v>       0.46153846       0.07692308       0.00000000 </v>
   <v>      -0.46153846       0.07692308       0.00000000 </v>
   <v>      -0.38461538       0.07692308      -0.00000000 </v>
   <v>      -0.30769231       0.07692308       0.00000000 </v>
   <v>      -0.23076923       0.07692308       0.00000000 </v>
   <v>      -0.15384615       0.07692308      -0.00000000 </v>
   <v>      -0.07692308       0.07692308       0.00000000 </v>
   <v>       0.15384615       0.15384615      -0.00000000 </v>
   <v>       0.23076923       0.15384615      -0.00000000 </v>
   <v>       0.30769231       0.15384615       0.00000000 </v>
   <v>       0.38461538       0.15384615      -0.00000000 </v>
   <v>       0.46153846       0.15384615       0.00000000 </v>
   <v>      -0.46153846       0.15384615       0.00000000 </v>
   <v>      -0.38461538       0.15384615      -0.00000000 </v>
   <v>      -0.30769231       0.15384615       0.00000000 </v>
   <v>      -0.23076923       0.15384615       0.00000000 </v>
   <v>      -0.15384615       0.15384615       0.00000000 </v>
   <v>       0.23076923       0.23076923      -0.00000000 </v>
   <v>       0.30769231       0.23076923      -0.00000000 </v>
   <v>       0.38461538       0.23076923       0.00000000 </v>
   <v>       0.46153846       0.23076923      -0.00000000 </v>
   <v>      -0.46153846       0.23076923      -0.00000000 </v>
   <v>      -0.38461538       0.23076923      -0.00000000 </v>
   <v>      -0.30769231       0.23076923      -0.00000000 </v>
   <v>      -0.23076923       0.23076923       0.00000000 </v>
   <v>       0.30769231       0.30769231       0.00000000 </v>
   <v>       0.38461538       0.30769231      -0.00000000 </v>
   <v>       0.46153846       0.30769231       0.00000000 </v>
   <v>      -0.46153846       0.30769231      -0.00000000 </v>
   <v>      -0.38461538       0.30769231      -0.00000000 </v>
   <v>      -0.30769231       0.30769231      -0.00000000 </v>
   <v>       0.38461538       0.38461538      -0.00000000 </v>
   <v>       0.46153846       0.38461538      -0.00000000 </v>
   <v>      -0.46153846       0.38461538      -0.00000000 </v>
   <v>      -0.38461538       0.38461538      -0.00000000 </v>
   <v>       0.46153846       0.46153846      -0.00000000 </v>
   <v>      -0.46153846       0.46153846       0.00000000 </v>
   <v>       0.07692308       0.07692308       0.07692308 </v>
   <v>       0.15384615       0.07692308       0.07692308 </v>
   <v>       0.23076923       0.07692308       0.07692308 </v>
   <v>       0.30769231       0.07692308       0.07692308 </v>
   <v>       0.38461538       0.07692308       0.07692308 </v>
   <v>       0.46153846       0.07692308       0.07692308 </v>
   <v>      -0.46153846       0.07692308       0.07692308 </v>
   <v>      -0.38461538       0.07692308       0.07692308 </v>
   <v>      -0.30769231       0.07692308       0.07692308 </v>
   <v>      -0.23076923       0.07692308       0.07692308 </v>
   <v>      -0.15384615       0.07692308       0.07692308 </v>
   <v>      -0.07692308       0.07692308       0.07692308 </v>
   <v>       0.15384615       0.15384615       0.07692308 </v>
   <v>       0.23076923       0.15384615       0.07692308 </v>
   <v>       0.30769231       0.15384615       0.07692308 </v>
   <v>       0.38461538       0.15384615       0.07692308 </v>
   <v>       0.46153846       0.15384615       0.07692308 </v>
   <v>      -0.46153846       0.15384615       0.07692308 </v>
   <v>      -0.38461538       0.15384615       0.07692308 </v>
   <v>      -0.30769231       0.15384615       0.07692308 </v>
   <v>      -0.23076923       0.15384615       0.07692308 </v>
   <v>      -0.15384615       0.15384615       0.07692308 </v>
   <v>      -0.07692308       0.15384615       0.07692308 </v>
   <v>       0.23076923       0.23076923       0.07692308 </v>
   <v>       0.30769231       0.23076923       0.07692308 </v>
   <v>       0.38461538       0.23076923       0.07692308 </v>
   <v>       0.46153846       0.23076923       0.07692308 </v>
   <v>      -0.46153846       0.23076923       0.07692308 </v>
   <v>      -0.38461538       0.23076923       0.07692308 </v>
   <v>      -0.30769231       0.23076923       0.07692308 </v>
   <v>      -0.23076923       0.23076923       0.07692308 </v>
   <v>      -0.15384615       0.23076923       0.07692308 </v>
   <v>      -0.07692308       0.23076923       0.07692308 </v>
   <v>       0.30769231       0.30769231       0.07692308 </v>
   <v>       0.38461538       0.30769231       0.07692308 </v>
   <v>       0.46153846       0.30769231       0.07692308 </v>
   <v>      -0.46153846       0.30769231       0.07692308 </v>
   <v>      -0.38461538       0.30769231       0.07692308 </v>
   <v>      -0.30769231       0.30769231       0.07692308 </v>
   <v>      -0.23076923       0.30769231       0.07692308 </v>
   <v>      -0.15384615       0.30769231       0.07692308 </v>
   <v>      -0.07692308       0.30769231       0.07692308 </v>
   <v>       0.38461538       0.38461538       0.07692308 </v>
   <v>       0.46153846       0.38461538       0.07692308 </v>
   <v>      -0.46153846       0.38461538       0.07692308 </v>
   <v>      -0.38461538       0.38461538       0.07692308 </v>
   <v>      -0.30769231       0.38461538       0.07692308 </v>
   <v>      -0.23076923       0.38461538       0.07692308 </v>
   <v>      -0.15384615       0.38461538       0.07692308 </v>
   <v>      -0.07692308       0.38461538       0.07692308 </v>
   <v>       0.46153846       0.46153846       0.07692308 </v>
   <v>      -0.46153846       0.46153846       0.07692308 </v>
   <v>      -0.38461538       0.46153846       0.07692308 </v>
   <v>      -0.30769231       0.46153846       0.07692308 </v>
   <v>      -0.23076923       0.46153846       0.07692308 </v>
   <v>      -0.15384615       0.46153846       0.07692308 </v>
   <v>      -0.07692308       0.46153846       0.07692308 </v>
   <v>      -0.46153846      -0.46153846       0.07692308 </v>
   <v>      -0.38461538      -0.46153846       0.07692308 </v>
   <v>      -0.30769231      -0.46153846       0.07692308 </v>
   <v>      -0.23076923      -0.46153846       0.07692308 </v>
   <v>      -0.15384615      -0.46153846       0.07692308 </v>
   <v>      -0.38461538      -0.38461538       0.07692308 </v>
   <v>      -0.30769231      -0.38461538       0.07692308 </v>
   <v>      -0.23076923      -0.38461538       0.07692308 </v>
   <v>      -0.15384615      -0.38461538       0.07692308 </v>
   <v>      -0.30769231      -0.30769231       0.07692308 </v>
   <v>      -0.23076923      -0.30769231       0.07692308 </v>
   <v>      -0.15384615      -0.30769231       0.07692308 </v>
   <v>      -0.23076923      -0.23076923       0.07692308 </v>
   <v>      -0.15384615      -0.23076923       0.07692308 </v>
   <v>      -0.15384615      -0.15384615       0.07692308 </v>
   <v>       0.15384615       0.15384615       0.15384615 </v>
   <v>       0.23076923       0.15384615       0.15384615 </v>
   <v>       0.30769231       0.15384615       0.15384615 </v>
   <v>       0.38461538       0.15384615       0.15384615 </v>
   <v>       0.46153846       0.15384615       0.15384615 </v>
   <v>      -0.46153846       0.15384615       0.15384615 </v>
   <v>      -0.38461538       0.15384615       0.15384615 </v>
   <v>      -0.30769231       0.15384615       0.15384615 </v>
   <v>      -0.23076923       0.15384615       0.15384615 </v>
   <v>      -0.15384615       0.15384615       0.15384615 </v>
   <v>       0.23076923       0.23076923       0.15384615 </v>
   <v>       0.30769231       0.23076923       0.15384615 </v>
   <v>       0.38461538       0.23076923       0.15384615 </v>
   <v>       0.46153846       0.23076923       0.15384615 </v>
   <v>      -0.46153846       0.23076923       0.15384615 </v>
   <v>      -0.38461538       0.23076923       0.15384615 </v>
   <v>      -0.30769231       0.23076923       0.15384615 </v>
   <v>      -0.23076923       0.23076923       0.15384615 </v>
   <v>      -0.15384615       0.23076923       0.15384615 </v>
   <v>       0.30769231       0.30769231       0.15384615 </v>
   <v>       0.38461538       0.30769231       0.15384615 </v>
   <v>       0.46153846       0.30769231       0.15384615 </v>
   <v>      -0.46153846       0.30769231       0.15384615 </v>
   <v>      -0.38461538       0.30769231       0.15384615 </v>
   <v>      -0.30769231       0.30769231       0.15384615 </v>
   <v>      -0.23076923       0.30769231       0.15384615 </v>
   <v>      -0.15384615       0.30769231       0.15384615 </v>
   <v>       0.38461538       0.38461538       0.15384615 </v>
   <v>       0.46153846       0.38461538       0.15384615 </v>
   <v>      -0.46153846       0.38461538       0.15384615 </v>
   <v>      -0.38461538       0.38461538       0.15384615 </v>
   <v>      -0.30769231       0.38461538       0.15384615 </v>
   <v>      -0.23076923       0.38461538       0.15384615 </v>
   <v>      -0.15384615       0.38461538       0.15384615 </v>
   <v>       0.46153846       0.46153846       0.15384615 </v>
   <v>      -0.46153846       0.46153846       0.15384615 </v>
   <v>      -0.38461538       0.46153846       0.15384615 </v>
   <v>      -0.30769231       0.46153846       0.15384615 </v>
   <v>      -0.23076923       0.46153846       0.15384615 </v>
   <v>      -0.15384615       0.46153846       0.15384615 </v>
   <v>      -0.46153846      -0.46153846       0.15384615 </v>
   <v>      -0.38461538      -0.46153846       0.15384615 </v>
   <v>      -0.30769231      -0.46153846       0.15384615 </v>
   <v>      -0.23076923      -0.46153846       0.15384615 </v>
   <v>      -0.38461538      -0.38461538       0.15384615 </v>
   <v>      -0.30769231      -0.38461538       0.15384615 </v>
   <v>      -0.23076923      -0.38461538       0.15384615 </v>
   <v>      -0.30769231      -0.30769231       0.15384615 </v>
   <v>      -0.23076923      -0.30769231       0.15384615 </v>
   <v>      -0.23076923      -0.23076923       0.15384615 </v>
   <v>       0.23076923       0.23076923       0.23076923 </v>
   <v>       0.30769231       0.23076923       0.23076923 </v>
   <v>       0.38461538       0.23076923       0.23076923 </v>
   <v>       0.46153846       0.23076923       0.23076923 </v>
   <v>      -0.46153846       0.23076923       0.23076923 </v>
   <v>      -0.38461538       0.23076923       0.23076923 </v>
   <v>      -0.30769231       0.23076923       0.23076923 </v>
   <v>      -0.23076923       0.23076923       0.23076923 </v>
   <v>       0.30769231       0.30769231       0.23076923 </v>
   <v>       0.38461538       0.30769231       0.23076923 </v>
   <v>       0.46153846       0.30769231       0.23076923 </v>
   <v>      -0.46153846       0.30769231       0.23076923 </v>
   <v>      -0.38461538       0.30769231       0.23076923 </v>
   <v>      -0.30769231       0.30769231       0.23076923 </v>
   <v>      -0.23076923       0.30769231       0.23076923 </v>
   <v>       0.38461538       0.38461538       0.23076923 </v>
   <v>       0.46153846       0.38461538       0.23076923 </v>
   <v>      -0.46153846       0.38461538       0.23076923 </v>
   <v>      -0.38461538       0.38461538       0.23076923 </v>
   <v>      -0.30769231       0.38461538       0.23076923 </v>
   <v>      -0.23076923       0.38461538       0.23076923 </v>
   <v>       0.46153846       0.46153846       0.23076923 </v>
   <v>      -0.46153846       0.46153846       0.23076923 </v>
   <v>      -0.38461538       0.46153846       0.23076923 </v>
   <v>      -0.30769231       0.46153846       0.23076923 </v>
   <v>      -0.23076923       0.46153846       0.23076923 </v>
   <v>      -0.46153846      -0.46153846       0.23076923 </v>
   <v>      -0.38461538      -0.46153846       0.23076923 </v>
   <v>      -0.30769231      -0.46153846       0.23076923 </v>
   <v>      -0.38461538      -0.38461538       0.23076923 </v>
   <v>      -0.30769231      -0.38461538       0.23076923 </v>
   <v>      -0.30769231      -0.30769231       0.23076923 </v>
   <v>       0.30769231       0.30769231       0.30769231 </v>
   <v>       0.38461538       0.30769231       0.30769231 </v>
   <v>       0.46153846       0.30769231       0.30769231 </v>
   <v>      -0.46153846       0.30769231       0.30769231 </v>
   <v>      -0.38461538       0.30769231       0.30769231 </v>
   <v>      -0.30769231       0.30769231       0.30769231 </v>
   <v>       0.38461538       0.38461538       0.30769231 </v>
   <v>       0.46153846       0.38461538       0.30769231 </v>
   <v>      -0.46153846       0.38461538       0.30769231 </v>
   <v>      -0.38461538       0.38461538       0.30769231 </v>
   <v>      -0.30769231       0.38461538       0.30769231 </v>
   <v>       0.46153846       0.46153846       0.30769231 </v>
   <v>      -0.46153846       0.46153846       0.30769231 </v>
   <v>      -0.38461538       0.46153846       0.30769231 </v>
   <v>      -0.30769231       0.46153846       0.30769231 </v>
   <v>      -0.46153846      -0.46153846       0.30769231 </v>
   <v>      -0.38461538      -0.46153846       0.30769231 </v>
   <v>      -0.38461538      -0.38461538       0.30769231 </v>
   <v>       0.38461538       0.38461538       0.38461538 </v>
   <v>       0.46153846       0.38461538       0.38461538 </v>
   <v>      -0.46153846       0.38461538       0.38461538 </v>
   <v>      -0.38461538       0.38461538       0.38461538 </v>
   <v>       0.46153846       0.46153846       0.38461538 </v>
   <v>      -0.46153846       0.46153846       0.38461538 </v>
   <v>      -0.38461538       0.46153846       0.38461538 </v>
   <v>      -0.46153846      -0.46153846       0.38461538 </v>
   <v>       0.46153846       0.46153846       0.46153846 </v>
   <v>      -0.46153846       0.46153846       0.46153846 </v>
  </varray>
  <varray name="weights" >
   <v>       0.00045517 </v>
   <v>       0.00273100 </v>
   <v>       0.00273100 </v>
   <v>       0.00273100 </v>
   <v>       0.00273100 </v>
   <v>       0.00273100 </v>
   <v>       0.00273100 </v>
   <v>       0.00273100 </v>
   <v>       0.00546199 </v>
   <v>       0.00546199 </v>
   <v>       0.00546199 </v>
   <v>       0.00546199 </v>
   <v>       0.00546199 </v>
   <v>       0.00546199 </v>
   <v>       0.00546199 </v>
   <v>       0.00546199 </v>
   <v>       0.00546199 </v>
   <v>       0.00546199 </v>
   <v>       0.00273100 </v>
   <v>       0.00273100 </v>
   <v>       0.00546199 </v>
   <v>       0.00546199 </v>
   <v>       0.00546199 </v>
   <v>       0.00546199 </v>
   <v>       0.00546199 </v>
   <v>       0.00546199 </v>
   <v>       0.00546199 </v>
   <v>       0.00546199 </v>
   <v>       0.00273100 </v>
   <v>       0.00273100 </v>
   <v>       0.00546199 </v>
   <v>       0.00546199 </v>
   <v>       0.00546199 </v>
   <v>       0.00546199 </v>
   <v>       0.00546199 </v>
   <v>       0.00546199 </v>
   <v>       0.00273100 </v>
   <v>       0.00273100 </v>
   <v>       0.00546199 </v>
   <v>       0.00546199 </v>
   <v>       0.00546199 </v>
   <v>       0.00546199 </v>
   <v>       0.00273100 </v>
   <v>       0.00273100 </v>
   <v>       0.00546199 </v>
   <v>       0.00546199 </v>
   <v>       0.00273100 </v>
   <v>       0.00273100 </v>
   <v>       0.00273100 </v>
   <v>       0.00091033 </v>
   <v>       0.00273100 </v>
   <v>       0.00273100 </v>
   <v>       0.00273100 </v>
   <v>       0.00273100 </v>
   <v>       0.00273100 </v>
   <v>       0.00273100 </v>
   <v>       0.00273100 </v>
   <v>       0.00273100 </v>
   <v>       0.00273100 </v>
   <v>       0.00273100 </v>
   <v>       0.00273100 </v>
   <v>       0.00273100 </v>
   <v>       0.00546199 </v>
   <v>       0.00546199 </v>
   <v>       0.00546199 </v>
   <v>       0.00546199 </v>
   <v>       0.00546199 </v>
   <v>       0.00546199 </v>
   <v>       0.00546199 </v>
   <v>       0.00546199 </v>
   <v>       0.00546199 </v>
   <v>       0.00546199 </v>
   <v>       0.00273100 </v>
   <v>       0.00546199 </v>
   <v>       0.00546199 </v>
   <v>       0.00546199 </v>
   <v>       0.00546199 </v>
   <v>       0.00546199 </v>
   <v>       0.00546199 </v>
   <v>       0.00546199 </v>
   <v>       0.00546199 </v>
   <v>       0.00546199 </v>
   <v>       0.00273100 </v>
   <v>       0.00546199 </v>
   <v>       0.00546199 </v>
   <v>       0.00546199 </v>
   <v>       0.00546199 </v>
   <v>       0.00546199 </v>
   <v>       0.00546199 </v>
   <v>       0.00546199 </v>
   <v>       0.00546199 </v>
   <v>       0.00273100 </v>
   <v>       0.00546199 </v>
   <v>       0.00546199 </v>
   <v>       0.00546199 </v>
   <v>       0.00546199 </v>
   <v>       0.00546199 </v>
   <v>       0.00546199 </v>
   <v>       0.00546199 </v>
   <v>       0.00273100 </v>
   <v>       0.00546199 </v>
   <v>       0.00546199 </v>
   <v>       0.00546199 </v>
   <v>       0.00546199 </v>
   <v>       0.00546199 </v>
   <v>       0.00546199 </v>
   <v>       0.00273100 </v>
   <v>       0.00546199 </v>
   <v>       0.00546199 </v>
   <v>       0.00546199 </v>
   <v>       0.00546199 </v>
   <v>       0.00273100 </v>
   <v>       0.00546199 </v>
   <v>       0.00546199 </v>
   <v>       0.00546199 </v>
   <v>       0.00273100 </v>
   <v>       0.00546199 </v>
   <v>       0.00546199 </v>
   <v>       0.00273100 </v>
   <v>       0.00546199 </v>
   <v>       0.00273100 </v>
   <v>       0.00091033 </v>
   <v>       0.00273100 </v>
   <v>       0.00273100 </v>
   <v>       0.00273100 </v>
   <v>       0.00273100 </v>
   <v>       0.00273100 </v>
   <v>       0.00273100 </v>
   <v>       0.00273100 </v>
   <v>       0.00273100 </v>
   <v>       0.00273100 </v>
   <v>       0.00273100 </v>
   <v>       0.00546199 </v>
   <v>       0.00546199 </v>
   <v>       0.00546199 </v>
   <v>       0.00546199 </v>
   <v>       0.00546199 </v>
   <v>       0.00546199 </v>
   <v>       0.00546199 </v>
   <v>       0.00546199 </v>
   <v>       0.00273100 </v>
   <v>       0.00546199 </v>
   <v>       0.00546199 </v>
   <v>       0.00546199 </v>
   <v>       0.00546199 </v>
   <v>       0.00546199 </v>
   <v>       0.00546199 </v>
   <v>       0.00546199 </v>
   <v>       0.00273100 </v>
   <v>       0.00546199 </v>
   <v>       0.00546199 </v>
   <v>       0.00546199 </v>
   <v>       0.00546199 </v>
   <v>       0.00546199 </v>
   <v>       0.00546199 </v>
   <v>       0.00273100 </v>
   <v>       0.00546199 </v>
   <v>       0.00546199 </v>
   <v>       0.00546199 </v>
   <v>       0.00546199 </v>
   <v>       0.00546199 </v>
   <v>       0.00273100 </v>
   <v>       0.00546199 </v>
   <v>       0.00546199 </v>
   <v>       0.00546199 </v>
   <v>       0.00273100 </v>
   <v>       0.00546199 </v>
   <v>       0.00546199 </v>
   <v>       0.00273100 </v>
   <v>       0.00546199 </v>
   <v>       0.00273100 </v>
   <v>       0.00091033 </v>
   <v>       0.00273100 </v>
   <v>       0.00273100 </v>
   <v>       0.00273100 </v>
   <v>       0.00273100 </v>
   <v>       0.00273100 </v>
   <v>       0.00273100 </v>
   <v>       0.00273100 </v>
   <v>       0.00273100 </v>
   <v>       0.00546199 </v>
   <v>       0.00546199 </v>
   <v>       0.00546199 </v>
   <v>       0.00546199 </v>
   <v>       0.00546199 </v>
   <v>       0.00546199 </v>
   <v>       0.00273100 </v>
   <v>       0.00546199 </v>
   <v>       0.00546199 </v>
   <v>       0.00546199 </v>
   <v>       0.00546199 </v>
   <v>       0.00546199 </v>
   <v>       0.00273100 </v>
   <v>       0.00546199 </v>
   <v>       0.00546199 </v>
   <v>       0.00546199 </v>
   <v>       0.00546199 </v>
   <v>       0.00273100 </v>
   <v>       0.00546199 </v>
   <v>       0.00546199 </v>
   <v>       0.00273100 </v>
   <v>       0.00546199 </v>
   <v>       0.00273100 </v>
   <v>       0.00091033 </v>
   <v>       0.00273100 </v>
   <v>       0.00273100 </v>
   <v>       0.00273100 </v>
   <v>       0.00273100 </v>
   <v>       0.00273100 </v>
   <v>       0.00273100 </v>
   <v>       0.00546199 </v>
   <v>       0.00546199 </v>
   <v>       0.00546199 </v>
   <v>       0.00546199 </v>
   <v>       0.00273100 </v>
   <v>       0.00546199 </v>
   <v>       0.00546199 </v>
   <v>       0.00546199 </v>
   <v>       0.00273100 </v>
   <v>       0.00546199 </v>
   <v>       0.00273100 </v>
   <v>       0.00091033 </v>
   <v>       0.00273100 </v>
   <v>       0.00273100 </v>
   <v>       0.00273100 </v>
   <v>       0.00273100 </v>
   <v>       0.00546199 </v>
   <v>       0.00546199 </v>
   <v>       0.00273100 </v>
   <v>       0.00091033 </v>
   <v>       0.00273100 </v>
  </varray>
 </kpoints>
 <parameters>
  <separator name="general" >
   <i type="string" name="SYSTEM">ge_ran</i>
   <i type="logical" name="LCOMPAT"> F  </i>
  </separator>
  <separator name="electronic" >
   <i type="string" name="PREC">a</i>
   <i name="ENMAX">    400.00000000</i>
   <i name="ENAUG">    385.84300000</i>
   <i name="EDIFF">      0.00000001</i>
   <i type="int" name="IALGO">    38</i>
   <i type="int" name="IWAVPR">    10</i>
   <i type="int" name="NBANDS">    40</i>
   <i name="NELECT">     10.00000000</i>
   <i type="int" name="TURBO">     0</i>
   <i type="int" name="IRESTART">     0</i>
   <i type="int" name="NREBOOT">     0</i>
   <i type="int" name="NMIN">     0</i>
   <i name="EREF">      0.00000000</i>
   <separator name="electronic smearing" >
    <i type="int" name="ISMEAR">     0</i>
    <i name="SIGMA">      0.05000000</i>
    <i name="KSPACING">      0.14000000</i>
    <i type="logical" name="KGAMMA"> T  </i>
   </separator>
   <separator name="electronic projectors" >
    <i type="logical" name="LREAL"> F  </i>
    <v name="ROPT">      0.00000000      0.00000000</v>
    <i type="int" name="LMAXPAW">  -100</i>
    <i type="int" name="LMAXMIX">     2</i>
    <i type="logical" name="NLSPLINE"> F  </i>
   </separator>
   <separator name="electronic startup" >
    <i type="int" name="ISTART">     0</i>
    <i type="int" name="ICHARG">     2</i>
    <i type="int" name="INIWAV">     1</i>
   </separator>
   <separator name="electronic spin" >
    <i type="int" name="ISPIN">     1</i>
    <i type="logical" name="LNONCOLLINEAR"> F  </i>
    <v name="MAGMOM">      1.00000000      1.00000000</v>
    <i name="NUPDOWN">     -1.00000000</i>
    <i type="logical" name="LSORBIT"> F  </i>
    <v name="SAXIS">      0.00000000      0.00000000      1.00000000</v>
    <i type="logical" name="LSPIRAL"> F  </i>
    <v name="QSPIRAL">      0.00000000      0.00000000      0.00000000</v>
    <i type="logical" name="LZEROZ"> F  </i>
   </separator>
   <separator name="electronic exchange-correlation" >
    <i type="logical" name="LASPH"> F  </i>
    <i type="logical" name="LMETAGGA"> F  </i>
   </separator>
   <separator name="electronic convergence" >
    <i type="int" name="NELM">   200</i>
    <i type="int" name="NELMDL">    -5</i>
    <i type="int" name="NELMIN">     2</i>
    <i name="ENINI">    400.00000000</i>
    <separator name="electronic convergence detail" >
     <i type="logical" name="LDIAG"> T  </i>
     <i type="logical" name="LSUBROT"> F  </i>
     <i name="WEIMIN">      0.00000000</i>
     <i name="EBREAK">      0.00000000</i>
     <i name="DEPER">      0.30000000</i>
     <i type="int" name="NRMM">     4</i>
     <i name="TIME">      0.40000000</i>
    </separator>
   </separator>
   <separator name="electronic mixer" >
    <i name="AMIX">      0.40000000</i>
    <i name="BMIX">      1.00000000</i>
    <i name="AMIN">      0.10000000</i>
    <i name="AMIX_MAG">      1.60000000</i>
    <i name="BMIX_MAG">      1.00000000</i>
    <separator name="electronic mixer details" >
     <i type="int" name="IMIX">     4</i>
     <i type="logical" name="MIXFIRST"> F  </i>
     <i type="int" name="MAXMIX">   -45</i>
     <i name="WC">    100.00000000</i>
     <i type="int" name="INIMIX">     1</i>
     <i type="int" name="MIXPRE">     1</i>
     <i type="int" name="MREMOVE">     5</i>
    </separator>
   </separator>
   <separator name="electronic dipolcorrection" >
    <i type="logical" name="LDIPOL"> F  </i>
    <i type="logical" name="LMONO"> F  </i>
    <i type="int" name="IDIPOL">     0</i>
    <i name="EPSILON">      1.00000000</i>
    <v name="DIPOL">   -100.00000000   -100.00000000   -100.00000000</v>
    <i name="EFIELD">      0.00000000</i>
   </separator>
  </separator>
  <separator name="grids" >
   <i type="int" name="NGX">    30</i>
   <i type="int" name="NGY">    30</i>
   <i type="int" name="NGZ">    30</i>
   <i type="int" name="NGXF">    60</i>
   <i type="int" name="NGYF">    60</i>
   <i type="int" name="NGZF">    60</i>
   <i type="logical" name="ADDGRID"> F  </i>
  </separator>
  <separator name="ionic" >
   <i type="int" name="NSW">     0</i>
   <i type="int" name="IBRION">    -1</i>
   <i type="int" name="MDALGO">     0</i>
   <i type="int" name="ISIF">     3</i>
   <i name="PSTRESS">      0.00000000</i>
   <i name="EDIFFG">      0.00000010</i>
   <i type="int" name="NFREE">     0</i>
   <i name="POTIM">      0.50000000</i>
   <i name="SMASS">     -3.00000000</i>
   <i name="SCALEE">      1.00000000</i>
  </separator>
  <separator name="ionic md" >
   <i name="TEBEG">      0.00010000</i>
   <i name="TEEND">      0.00010000</i>
   <i type="int" name="NBLOCK">     1</i>
   <i type="int" name="KBLOCK">     1</i>
   <i type="int" name="NPACO">   256</i>
   <i name="APACO">     16.00000000</i>
  </separator>
  <separator name="symmetry" >
   <i type="int" name="ISYM">     2</i>
   <i name="SYMPREC">      0.00001000</i>
  </separator>
  <separator name="dos" >
   <i type="int" name="LORBIT">     0</i>
   <v name="RWIGS">     -1.00000000     -1.00000000</v>
   <i type="int" name="NEDOS">   301</i>
   <i name="EMIN">     10.00000000</i>
   <i name="EMAX">    -10.00000000</i>
   <i name="EFERMI">      0.00000000</i>
  </separator>
  <separator name="writing" >
   <i type="int" name="NWRITE">     2</i>
   <i type="logical" name="LWAVE"> F  </i>
   <i type="logical" name="LDOWNSAMPLE"> F  </i>
   <i type="logical" name="LCHARG"> F  </i>
   <i type="logical" name="LPARD"> F  </i>
   <i type="logical" name="LVTOT"> F  </i>
   <i type="logical" name="LVHAR"> F  </i>
   <i type="logical" name="LELF"> F  </i>
   <i type="logical" name="LOPTICS"> F  </i>
   <v name="STM">      0.00000000      0.00000000      0.00000000      0.00000000      0.00000000      0.00000000      0.00000000</v>
  </separator>
  <separator name="performance" >
   <i type="int" name="NPAR">    40</i>
   <i type="int" name="NSIM">     4</i>
   <i type="int" name="NBLK">    -1</i>
   <i type="logical" name="LPLANE"> T  </i>
   <i type="logical" name="LSCALAPACK"> T  </i>
   <i type="logical" name="LSCAAWARE"> T  </i>
   <i type="logical" name="LSCALU"> F  </i>
   <i type="logical" name="LASYNC"> F  </i>
   <i type="logical" name="LORBITALREAL"> F  </i>
  </separator>
  <separator name="miscellaneous" >
   <i type="int" name="IDIOT">     3</i>
   <i type="int" name="ISPECIAL">     0</i>
   <i type="logical" name="LMUSIC"> F  </i>
   <v name="POMASS">     72.61000000    127.60000000</v>
   <v name="DARWINR">      0.00000000      0.00000000</v>
   <v name="DARWINV">      1.00000000      1.00000000</v>
   <i type="logical" name="LCORR"> T  </i>
  </separator>
  <i type="logical" name="GGA_COMPAT"> T  </i>
  <i type="logical" name="LBERRY"> F  </i>
  <i type="int" name="ICORELEVEL">     0</i>
  <i type="logical" name="LDAU"> F  </i>
  <i type="int" name="I_CONSTRAINED_M">     0</i>
  <separator name="electronic exchange-correlation" >
   <i type="string" name="GGA">PE</i>
   <i type="int" name="VOSKOWN">     0</i>
   <i type="logical" name="LHFCALC"> F  </i>
   <i type="string" name="PRECFOCK"></i>
   <i type="logical" name="LSYMGRAD"> F  </i>
   <i type="logical" name="LHFONE"> F  </i>
   <i type="logical" name="LRHFCALC"> F  </i>
   <i type="logical" name="LTHOMAS"> F  </i>
   <i type="logical" name="LMODELHF"> F  </i>
   <i name="ENCUT4O">     -1.00000000</i>
   <i type="int" name="EXXOEP">     0</i>
   <i type="int" name="FOURORBIT">     0</i>
   <i name="AEXX">      0.00000000</i>
   <i name="HFALPHA">      0.00000000</i>
   <i name="MCALPHA">      0.00000000</i>
   <i name="ALDAX">      1.00000000</i>
   <i name="AGGAX">      1.00000000</i>
   <i name="ALDAC">      1.00000000</i>
   <i name="AGGAC">      1.00000000</i>
   <i type="int" name="NKREDX">     1</i>
   <i type="int" name="NKREDY">     1</i>
   <i type="int" name="NKREDZ">     1</i>
   <i type="logical" name="SHIFTRED"> F  </i>
   <i type="logical" name="ODDONLY"> F  </i>
   <i type="logical" name="EVENONLY"> F  </i>
   <i type="int" name="LMAXFOCK">     0</i>
   <i type="int" name="NMAXFOCKAE">     0</i>
   <i type="logical" name="LFOCKAEDFT"> F  </i>
   <i name="HFSCREEN">      0.00000000</i>
   <i name="HFSCREENC">      0.00000000</i>
   <i type="int" name="NBANDSGWLOW">     0</i>
  </separator>
  <separator name="vdW DFT" >
   <i type="logical" name="LUSE_VDW"> F  </i>
   <i name="Zab_VDW">     -0.84910000</i>
   <i name="PARAM1">      0.12340000</i>
   <i name="PARAM2">      1.00000000</i>
   <i name="PARAM3">      0.00000000</i>
  </separator>
  <separator name="model GW" >
   <i type="int" name="MODEL_GW">     0</i>
   <i name="MODEL_EPS0">     17.05504391</i>
   <i name="MODEL_ALPHA">      1.00000000</i>
  </separator>
  <separator name="linear response parameters" >
   <i type="logical" name="LEPSILON"> T  </i>
   <i type="logical" name="LRPA"> F  </i>
   <i type="logical" name="LNABLA"> F  </i>
   <i type="logical" name="LVEL"> F  </i>
   <i type="int" name="KINTER">     0</i>
   <i name="CSHIFT">      0.10000000</i>
   <i name="OMEGAMAX">     -1.00000000</i>
   <i name="DEG_THRESHOLD">      0.00200000</i>
   <i name="RTIME">     -0.10000000</i>
   <i name="WPLASMAI">      0.00000000</i>
   <v name="DFIELD">      0.00000000      0.00000000      0.00000000</v>
   <v name="WPLASMA">      0.00000000      0.00000000      0.00000000      0.00000000      0.00000000      0.00000000      0.00000000      0.00000000      0.00000000</v>
  </separator>
  <separator name="orbital magnetization" >
   <i type="logical" name="NUCIND"> F  </i>
   <v name="MAGPOS">      0.00000000      0.00000000      0.00000000</v>
   <i type="logical" name="LNICSALL"> T  </i>
   <i type="logical" name="ORBITALMAG"> F  </i>
   <i type="logical" name="LMAGBLOCH"> F  </i>
   <i type="logical" name="LCHIMAG"> F  </i>
   <i type="logical" name="LGAUGE"> T  </i>
   <i type="int" name="MAGATOM">     0</i>
   <v name="MAGDIPOL">      0.00000000      0.00000000      0.00000000</v>
   <v name="AVECCONST">      0.00000000      0.00000000      0.00000000</v>
  </separator>
  <separator name="response functions" >
   <i type="logical" name="LADDER"> F  </i>
   <i type="logical" name="LRPAFORCE"> F  </i>
   <i type="logical" name="LFXC"> F  </i>
   <i type="logical" name="LHARTREE"> T  </i>
   <i type="int" name="IBSE">     0</i>
   <v type="int" name="KPOINT">    -1     0     0     0</v>
   <i type="logical" name="LTCTE"> F  </i>
   <i type="logical" name="LTETE"> F  </i>
   <i type="logical" name="LTRIPLET"> F  </i>
   <i type="logical" name="LFXCEPS"> F  </i>
   <i type="logical" name="LFXHEG"> F  </i>
   <i type="int" name="NATURALO">     2</i>
   <i type="logical" name="L2ORDER"> F  </i>
   <i type="logical" name="LMP2LT"> F  </i>
   <i type="logical" name="LUSEW"> F  </i>
   <i name="ENCUTGW">     -2.00000000</i>
   <i name="ENCUTGWSOFT">     -2.00000000</i>
   <i name="ENCUTLF">     -1.00000000</i>
   <i type="int" name="LMAXMP2">    -1</i>
   <i name="SCISSOR">      0.00000000</i>
   <i type="int" name="NOMEGA">     0</i>
   <i type="int" name="NOMEGAR">     0</i>
   <i type="int" name="NBANDSGW">    -1</i>
   <i type="int" name="NBANDSO">    -1</i>
   <i type="int" name="NBANDSV">    -1</i>
   <i type="int" name="NELM">   200</i>
   <i type="int" name="NELMHF">     1</i>
   <i type="int" name="DIM">     3</i>
   <i type="int" name="ANTIRES">     0</i>
   <i name="OMEGAMAX">    -30.00000000</i>
   <i name="OMEGAMIN">    -30.00000000</i>
   <i name="OMEGATL">   -200.00000000</i>
   <i type="int" name="OMEGAGRID">   140</i>
   <i name="CSHIFT">     -0.10000000</i>
   <i type="logical" name="SELFENERGY"> F  </i>
   <i type="logical" name="LSPECTRAL"> F  </i>
   <i type="logical" name="LSPECTRALGW"> F  </i>
   <i type="logical" name="LSINGLES"> F  </i>
   <i type="logical" name="LFERMIGW"> F  </i>
   <i type="logical" name="ODDONLYGW"> F  </i>
   <i type="logical" name="EVENONLYGW"> F  </i>
   <i type="int" name="NKREDLFX">     1</i>
   <i type="int" name="NKREDLFY">     1</i>
   <i type="int" name="NKREDLFZ">     1</i>
   <i type="int" name="MAXMEM">  2800</i>
   <i type="int" name="TELESCOPE">     0</i>
   <i type="int" name="TAUPAR">     1</i>
   <i type="int" name="OMEGAPAR">    -1</i>
   <i name="LAMBDA">      1.00000000</i>
  </separator>
  <separator name="External order field" >
   <i name="OFIELD_KAPPA">      0.00000000</i>
   <v name="OFIELD_K">      0.00000000      0.00000000      0.00000000</v>
   <i name="OFIELD_Q6_NEAR">      0.00000000</i>
   <i name="OFIELD_Q6_FAR">      0.00000000</i>
   <i name="OFIELD_A">      0.00000000</i>
  </separator>
 </parameters>
 <atominfo>
  <atoms>       2 </atoms>
  <types>       2 </types>
  <array name="atoms" >
   <dimension dim="1">ion</dimension>
   <field type="string">element</field>
   <field type="int">atomtype</field>
   <set>
    <rc><c>Ge</c><c>   1</c></rc>
    <rc><c>Te</c><c>   2</c></rc>
   </set>
  </array>
  <array name="atomtypes" >
   <dimension dim="1">type</dimension>
   <field type="int">atomspertype</field>
   <field type="string">element</field>
   <field>mass</field>
   <field>valence</field>
   <field type="string">pseudopotential</field>
   <set>
    <rc><c>   1</c><c>Ge</c><c>     72.61000000</c><c>      4.00000000</c><c>  PAW_PBE Ge 05Jan2001                  </c></rc>
    <rc><c>   1</c><c>Te</c><c>    127.60000000</c><c>      6.00000000</c><c>  PAW_PBE Te 08Apr2002                  </c></rc>
   </set>
  </array>
 </atominfo>
 <structure name="initialpos" >
  <crystal>
   <varray name="basis" >
    <v>       4.41234324       0.00000000       0.00000000 </v>
    <v>       2.38904645      -3.70961318       0.00000000 </v>
    <v>       2.38904645      -1.30303344      -3.47323103 </v>
   </varray>
   <i name="volume">     56.85014637 </i>
   <varray name="rec_basis" >
    <v>       0.22663695       0.14595759       0.10113309 </v>
    <v>       0.00000000      -0.26956989       0.10113309 </v>
    <v>       0.00000000       0.00000000      -0.28791635 </v>
   </varray>
  </crystal>
  <varray name="positions" >
   <v>       0.00000000       0.00000000       0.00000000 </v>
   <v>       0.46672013       0.46672013       0.46672013 </v>
  </varray>
 </structure>
 <calculation>
  <scstep>
   <time name="dav">    3.03    3.06</time>
   <time name="total">    3.06    3.09</time>
   <energy>
    <i name="alphaZ">      9.16652546 </i>
    <i name="ewald">   -341.06133481 </i>
    <i name="hartreedc">    -17.03909652 </i>
    <i name="XCdc">    -35.72584975 </i>
    <i name="pawpsdc">    295.88937197 </i>
    <i name="pawaedc">   -242.91720696 </i>
    <i name="eentropy">     -0.00000077 </i>
    <i name="bandstr">      6.13734460 </i>
    <i name="atom">    328.26665873 </i>
    <i name="e_fr_energy">      2.71641195 </i>
    <i name="e_wo_entrp">      2.71641272 </i>
    <i name="e_0_energy">      2.71641234 </i>
   </energy>
  </scstep>
  <scstep>
   <time name="dav">    5.45    5.47</time>
   <time name="total">    5.45    5.47</time>
   <energy>
    <i name="e_fr_energy">     -7.81622262 </i>
    <i name="e_wo_entrp">     -7.81622262 </i>
    <i name="e_0_energy">     -7.81622262 </i>
   </energy>
  </scstep>
  <scstep>
   <time name="dav">    2.98    2.98</time>
   <time name="total">    2.98    2.98</time>
   <energy>
    <i name="e_fr_energy">     -7.84252235 </i>
    <i name="e_wo_entrp">     -7.84252235 </i>
    <i name="e_0_energy">     -7.84252235 </i>
   </energy>
  </scstep>
  <scstep>
   <time name="dav">    9.28   10.52</time>
   <time name="total">    9.28   10.52</time>
   <energy>
    <i name="e_fr_energy">     -7.84254973 </i>
    <i name="e_wo_entrp">     -7.84254973 </i>
    <i name="e_0_energy">     -7.84254973 </i>
   </energy>
  </scstep>
  <scstep>
   <time name="dav">    2.94    2.96</time>
   <time name="total">    3.02    3.04</time>
   <energy>
    <i name="e_fr_energy">     -7.84254973 </i>
    <i name="e_wo_entrp">     -7.84254973 </i>
    <i name="e_0_energy">     -7.84254973 </i>
   </energy>
  </scstep>
  <scstep>
   <time name="dav">    6.63    6.68</time>
   <time name="total">    6.72    6.77</time>
   <energy>
    <i name="e_fr_energy">     -7.83236511 </i>
    <i name="e_wo_entrp">     -7.83236511 </i>
    <i name="e_0_energy">     -7.83236511 </i>
   </energy>
  </scstep>
  <scstep>
   <time name="dav">    6.98    7.03</time>
   <time name="total">    7.07    7.14</time>
   <energy>
    <i name="e_fr_energy">     -7.83309460 </i>
    <i name="e_wo_entrp">     -7.83309460 </i>
    <i name="e_0_energy">     -7.83309460 </i>
   </energy>
  </scstep>
  <scstep>
   <time name="dav">    7.13    7.18</time>
   <time name="total">    7.23    7.29</time>
   <energy>
    <i name="e_fr_energy">     -7.83320440 </i>
    <i name="e_wo_entrp">     -7.83320440 </i>
    <i name="e_0_energy">     -7.83320440 </i>
   </energy>
  </scstep>
  <scstep>
   <time name="dav">    7.03    7.08</time>
   <time name="total">    7.12    7.17</time>
   <energy>
    <i name="e_fr_energy">     -7.83326305 </i>
    <i name="e_wo_entrp">     -7.83326305 </i>
    <i name="e_0_energy">     -7.83326305 </i>
   </energy>
  </scstep>
  <scstep>
   <time name="dav">    7.53    7.58</time>
   <time name="total">    7.62    7.67</time>
   <energy>
    <i name="e_fr_energy">     -7.83326941 </i>
    <i name="e_wo_entrp">     -7.83326941 </i>
    <i name="e_0_energy">     -7.83326941 </i>
   </energy>
  </scstep>
  <scstep>
   <time name="dav">    5.89    5.93</time>
   <time name="total">    5.98    6.02</time>
   <energy>
    <i name="e_fr_energy">     -7.83327019 </i>
    <i name="e_wo_entrp">     -7.83327019 </i>
    <i name="e_0_energy">     -7.83327019 </i>
   </energy>
  </scstep>
  <scstep>
   <time name="dav">    6.59    6.64</time>
   <time name="total">    6.68    6.74</time>
   <energy>
    <i name="e_fr_energy">     -7.83327039 </i>
    <i name="e_wo_entrp">     -7.83327039 </i>
    <i name="e_0_energy">     -7.83327039 </i>
   </energy>
  </scstep>
  <scstep>
   <time name="dav">    6.25    6.30</time>
   <time name="total">    6.34    6.39</time>
   <energy>
    <i name="e_fr_energy">     -7.83327044 </i>
    <i name="e_wo_entrp">     -7.83327044 </i>
    <i name="e_0_energy">     -7.83327044 </i>
   </energy>
  </scstep>
  <scstep>
   <time name="dav">    4.66    4.69</time>
   <time name="total">    4.74    4.78</time>
   <energy>
    <i name="e_fr_energy">     -7.83327046 </i>
    <i name="e_wo_entrp">     -7.83327046 </i>
    <i name="e_0_energy">     -7.83327046 </i>
   </energy>
  </scstep>
  <scstep>
   <time name="dav">    2.03    2.04</time>
   <time name="total">    2.04    2.05</time>
   <energy>
    <i name="alphaZ">      9.16652546 </i>
    <i name="ewald">   -341.06133481 </i>
    <i name="hartreedc">    -17.78310724 </i>
    <i name="XCdc">    -35.53098766 </i>
    <i name="pawpsdc">    591.58533575 </i>
    <i name="pawaedc">   -538.72028335 </i>
    <i name="eentropy">     -0.00000000 </i>
    <i name="bandstr">     -3.75607735 </i>
    <i name="atom">    328.26665873 </i>
    <i name="e_fr_energy">     -7.83327046 </i>
    <i name="e_wo_entrp">     -7.83327046 </i>
    <i name="e_0_energy">     -7.83327046 </i>
   </energy>
  </scstep>
  <structure>
   <crystal>
    <varray name="basis" >
     <v>       4.41234324       0.00000000       0.00000000 </v>
     <v>       2.38904645      -3.70961318       0.00000000 </v>
     <v>       2.38904645      -1.30303344      -3.47323103 </v>
    </varray>
    <i name="volume">     56.85014637 </i>
    <varray name="rec_basis" >
     <v>       0.22663695       0.14595759       0.10113309 </v>
     <v>       0.00000000      -0.26956989       0.10113309 </v>
     <v>       0.00000000       0.00000000      -0.28791635 </v>
    </varray>
   </crystal>
   <varray name="positions" >
    <v>       0.00000000       0.00000000       0.00000000 </v>
    <v>       0.46672013       0.46672013       0.46672013 </v>
   </varray>
  </structure>
  <varray name="forces" >
   <v>      -0.00219466       0.00119701       0.00082940 </v>
   <v>       0.00219466      -0.00119701      -0.00082940 </v>
  </varray>
  <varray name="stress" >
   <v>       0.14887601      -0.02413541      -0.01672327 </v>
   <v>      -0.02413541       0.11778887       0.00912121 </v>
   <v>      -0.01672327       0.00912121       0.11094496 </v>
  </varray>
  <energy>
   <i name="e_fr_energy">     -8.60825899 </i>
   <i name="e_wo_entrp">     -8.60825899 </i>
   <i name="e_0_energy">     -0.00000000 </i>
  </energy>
  <scstep>
   <time name="total">    1.31    1.32</time>
   <energy>
    <i name="e_fr_energy">    -40.85127600 </i>
    <i name="e_wo_entrp">    -40.85127600 </i>
    <i name="e_0_energy">    -40.85127600 </i>
   </energy>
  </scstep>
  <scstep>
   <time name="total">    1.27    1.29</time>
   <energy>
    <i name="e_fr_energy">    -42.24470888 </i>
    <i name="e_wo_entrp">    -42.24470888 </i>
    <i name="e_0_energy">    -42.24470888 </i>
   </energy>
  </scstep>
  <scstep>
   <time name="total">    1.28    1.29</time>
   <energy>
    <i name="e_fr_energy">    -42.26532402 </i>
    <i name="e_wo_entrp">    -42.26532402 </i>
    <i name="e_0_energy">    -42.26532402 </i>
   </energy>
  </scstep>
  <scstep>
   <time name="total">    1.12    1.12</time>
   <energy>
    <i name="e_fr_energy">    -42.26570991 </i>
    <i name="e_wo_entrp">    -42.26570991 </i>
    <i name="e_0_energy">    -42.26570991 </i>
   </energy>
  </scstep>
  <scstep>
   <time name="total">    1.11    1.13</time>
   <energy>
    <i name="e_fr_energy">    -42.26571188 </i>
    <i name="e_wo_entrp">    -42.26571188 </i>
    <i name="e_0_energy">    -42.26571188 </i>
   </energy>
  </scstep>
  <scstep>
   <time name="total">    1.11    1.12</time>
   <energy>
    <i name="e_fr_energy">    -42.26571188 </i>
    <i name="e_wo_entrp">    -42.26571188 </i>
    <i name="e_0_energy">    -42.26571188 </i>
   </energy>
  </scstep>
  <scstep>
   <time name="total">    1.11    1.12</time>
   <energy>
    <i name="e_fr_energy">    -42.26571189 </i>
    <i name="e_wo_entrp">    -42.26571189 </i>
    <i name="e_0_energy">    -42.26571189 </i>
   </energy>
  </scstep>
  <scstep>
   <time name="total">    1.11    1.12</time>
   <energy>
    <i name="e_fr_energy">    -42.26571190 </i>
    <i name="e_wo_entrp">    -42.26571190 </i>
    <i name="e_0_energy">    -42.26571190 </i>
   </energy>
  </scstep>
  <scstep>
   <time name="total">    1.31    1.32</time>
   <energy>
    <i name="e_fr_energy">    -43.62448472 </i>
    <i name="e_wo_entrp">    -43.62448472 </i>
    <i name="e_0_energy">    -43.62448472 </i>
   </energy>
  </scstep>
  <scstep>
   <time name="total">    1.28    1.29</time>
   <energy>
    <i name="e_fr_energy">    -41.19645790 </i>
    <i name="e_wo_entrp">    -41.19645790 </i>
    <i name="e_0_energy">    -41.19645790 </i>
   </energy>
  </scstep>
  <scstep>
   <time name="total">    1.28    1.29</time>
   <energy>
    <i name="e_fr_energy">    -41.21741715 </i>
    <i name="e_wo_entrp">    -41.21741715 </i>
    <i name="e_0_energy">    -41.21741715 </i>
   </energy>
  </scstep>
  <scstep>
   <time name="total">    1.11    1.12</time>
   <energy>
    <i name="e_fr_energy">    -41.21749228 </i>
    <i name="e_wo_entrp">    -41.21749228 </i>
    <i name="e_0_energy">    -41.21749228 </i>
   </energy>
  </scstep>
  <scstep>
   <time name="total">    1.11    1.12</time>
   <energy>
    <i name="e_fr_energy">    -41.21748025 </i>
    <i name="e_wo_entrp">    -41.21748025 </i>
    <i name="e_0_energy">    -41.21748025 </i>
   </energy>
  </scstep>
  <scstep>
   <time name="total">    1.11    1.12</time>
   <energy>
    <i name="e_fr_energy">    -41.21747846 </i>
    <i name="e_wo_entrp">    -41.21747846 </i>
    <i name="e_0_energy">    -41.21747846 </i>
   </energy>
  </scstep>
  <scstep>
   <time name="total">    1.11    1.13</time>
   <energy>
    <i name="e_fr_energy">    -41.21747826 </i>
    <i name="e_wo_entrp">    -41.21747826 </i>
    <i name="e_0_energy">    -41.21747826 </i>
   </energy>
  </scstep>
  <scstep>
   <time name="total">    1.11    1.12</time>
   <energy>
    <i name="e_fr_energy">    -41.21747825 </i>
    <i name="e_wo_entrp">    -41.21747825 </i>
    <i name="e_0_energy">    -41.21747825 </i>
   </energy>
  </scstep>
  <scstep>
   <time name="total">    1.11    1.12</time>
   <energy>
    <i name="e_fr_energy">    -41.21747824 </i>
    <i name="e_wo_entrp">    -41.21747824 </i>
    <i name="e_0_energy">    -41.21747824 </i>
   </energy>
  </scstep>
  <scstep>
   <time name="total">    1.31    1.32</time>
   <energy>
    <i name="e_fr_energy">    -56.07431173 </i>
    <i name="e_wo_entrp">    -56.07431173 </i>
    <i name="e_0_energy">    -56.07431173 </i>
   </energy>
  </scstep>
  <scstep>
   <time name="total">    1.27    1.29</time>
   <energy>
    <i name="e_fr_energy">    -50.78934255 </i>
    <i name="e_wo_entrp">    -50.78934255 </i>
    <i name="e_0_energy">    -50.78934255 </i>
   </energy>
  </scstep>
  <scstep>
   <time name="total">    1.28    1.29</time>
   <energy>
    <i name="e_fr_energy">    -50.81174765 </i>
    <i name="e_wo_entrp">    -50.81174765 </i>
    <i name="e_0_energy">    -50.81174765 </i>
   </energy>
  </scstep>
  <scstep>
   <time name="total">    1.11    1.12</time>
   <energy>
    <i name="e_fr_energy">    -50.81196959 </i>
    <i name="e_wo_entrp">    -50.81196959 </i>
    <i name="e_0_energy">    -50.81196959 </i>
   </energy>
  </scstep>
  <scstep>
   <time name="total">    1.11    1.12</time>
   <energy>
    <i name="e_fr_energy">    -50.81188471 </i>
    <i name="e_wo_entrp">    -50.81188471 </i>
    <i name="e_0_energy">    -50.81188471 </i>
   </energy>
  </scstep>
  <scstep>
   <time name="total">    1.11    1.12</time>
   <energy>
    <i name="e_fr_energy">    -50.81187985 </i>
    <i name="e_wo_entrp">    -50.81187985 </i>
    <i name="e_0_energy">    -50.81187985 </i>
   </energy>
  </scstep>
  <scstep>
   <time name="total">    1.11    1.12</time>
   <energy>
    <i name="e_fr_energy">    -50.81187846 </i>
    <i name="e_wo_entrp">    -50.81187846 </i>
    <i name="e_0_energy">    -50.81187846 </i>
   </energy>
  </scstep>
  <scstep>
   <time name="total">    1.11    1.13</time>
   <energy>
    <i name="e_fr_energy">    -50.81187835 </i>
    <i name="e_wo_entrp">    -50.81187835 </i>
    <i name="e_0_energy">    -50.81187835 </i>
   </energy>
  </scstep>
  <scstep>
   <time name="total">    1.11    1.12</time>
   <energy>
    <i name="e_fr_energy">    -50.81187832 </i>
    <i name="e_wo_entrp">    -50.81187832 </i>
    <i name="e_0_energy">    -50.81187832 </i>
   </energy>
  </scstep>
  <scstep>
   <time name="total">    1.11    1.12</time>
   <energy>
    <i name="e_fr_energy">    -50.81187832 </i>
    <i name="e_wo_entrp">    -50.81187832 </i>
    <i name="e_0_energy">    -50.81187832 </i>
   </energy>
  </scstep>
  <scstep>
   <time name="total">    1.46    1.47</time>
   <energy>
    <i name="e_fr_energy">     -4.70170084 </i>
    <i name="e_wo_entrp">     -4.70170084 </i>
    <i name="e_0_energy">     -4.70170084 </i>
   </energy>
  </scstep>
  <scstep>
   <time name="total">    1.42    1.43</time>
   <energy>
    <i name="e_fr_energy">     -5.02299005 </i>
    <i name="e_wo_entrp">     -5.02299005 </i>
    <i name="e_0_energy">     -5.02299005 </i>
   </energy>
  </scstep>
  <scstep>
   <time name="total">    1.43    1.44</time>
   <energy>
    <i name="e_fr_energy">     -5.02395317 </i>
    <i name="e_wo_entrp">     -5.02395317 </i>
    <i name="e_0_energy">     -5.02395317 </i>
   </energy>
  </scstep>
  <scstep>
   <time name="total">    1.43    1.44</time>
   <energy>
    <i name="e_fr_energy">     -5.02395847 </i>
    <i name="e_wo_entrp">     -5.02395847 </i>
    <i name="e_0_energy">     -5.02395847 </i>
   </energy>
  </scstep>
  <scstep>
   <time name="total">    1.45    1.46</time>
   <energy>
    <i name="e_fr_energy">     -5.02395854 </i>
    <i name="e_wo_entrp">     -5.02395854 </i>
    <i name="e_0_energy">     -5.02395854 </i>
   </energy>
  </scstep>
  <scstep>
   <time name="total">    1.45    1.46</time>
   <energy>
    <i name="e_fr_energy">     -5.02395854 </i>
    <i name="e_wo_entrp">     -5.02395854 </i>
    <i name="e_0_energy">     -5.02395854 </i>
   </energy>
  </scstep>
  <scstep>
   <time name="total">    1.45    1.46</time>
   <energy>
    <i name="e_fr_energy">     -3.95256667 </i>
    <i name="e_wo_entrp">     -3.95256667 </i>
    <i name="e_0_energy">     -3.95256667 </i>
   </energy>
  </scstep>
  <scstep>
   <time name="total">    1.42    1.43</time>
   <energy>
    <i name="e_fr_energy">     -4.14847172 </i>
    <i name="e_wo_entrp">     -4.14847172 </i>
    <i name="e_0_energy">     -4.14847172 </i>
   </energy>
  </scstep>
  <scstep>
   <time name="total">    1.43    1.44</time>
   <energy>
    <i name="e_fr_energy">     -4.14899968 </i>
    <i name="e_wo_entrp">     -4.14899968 </i>
    <i name="e_0_energy">     -4.14899968 </i>
   </energy>
  </scstep>
  <scstep>
   <time name="total">    1.43    1.44</time>
   <energy>
    <i name="e_fr_energy">     -4.14900356 </i>
    <i name="e_wo_entrp">     -4.14900356 </i>
    <i name="e_0_energy">     -4.14900356 </i>
   </energy>
  </scstep>
  <scstep>
   <time name="total">    1.43    1.44</time>
   <energy>
    <i name="e_fr_energy">     -4.14900365 </i>
    <i name="e_wo_entrp">     -4.14900365 </i>
    <i name="e_0_energy">     -4.14900365 </i>
   </energy>
  </scstep>
  <scstep>
   <time name="total">    1.44    1.45</time>
   <energy>
    <i name="e_fr_energy">     -4.14900365 </i>
    <i name="e_wo_entrp">     -4.14900365 </i>
    <i name="e_0_energy">     -4.14900365 </i>
   </energy>
  </scstep>
  <scstep>
   <time name="total">    1.46    1.48</time>
   <energy>
    <i name="e_fr_energy">     -7.08202987 </i>
    <i name="e_wo_entrp">     -7.08202987 </i>
    <i name="e_0_energy">     -7.08202987 </i>
   </energy>
  </scstep>
  <scstep>
   <time name="total">    1.43    1.43</time>
   <energy>
    <i name="e_fr_energy">     -7.49593317 </i>
    <i name="e_wo_entrp">     -7.49593317 </i>
    <i name="e_0_energy">     -7.49593317 </i>
   </energy>
  </scstep>
  <scstep>
   <time name="total">    1.43    1.44</time>
   <energy>
    <i name="e_fr_energy">     -7.49709194 </i>
    <i name="e_wo_entrp">     -7.49709194 </i>
    <i name="e_0_energy">     -7.49709194 </i>
   </energy>
  </scstep>
  <scstep>
   <time name="total">    1.43    1.44</time>
   <energy>
    <i name="e_fr_energy">     -7.49709967 </i>
    <i name="e_wo_entrp">     -7.49709967 </i>
    <i name="e_0_energy">     -7.49709967 </i>
   </energy>
  </scstep>
  <scstep>
   <time name="total">    1.43    1.44</time>
   <energy>
    <i name="e_fr_energy">     -7.49709981 </i>
    <i name="e_wo_entrp">     -7.49709981 </i>
    <i name="e_0_energy">     -7.49709981 </i>
   </energy>
  </scstep>
  <scstep>
   <time name="total">    1.43    1.45</time>
   <energy>
    <i name="e_fr_energy">     -7.49709982 </i>
    <i name="e_wo_entrp">     -7.49709982 </i>
    <i name="e_0_energy">     -7.49709982 </i>
   </energy>
  </scstep>
  <scstep>
   <time name="total">    1.43    1.44</time>
   <energy>
    <i name="e_fr_energy">     -7.49709983 </i>
    <i name="e_wo_entrp">     -7.49709983 </i>
    <i name="e_0_energy">     -7.49709983 </i>
   </energy>
  </scstep>
  <varray name="epsilon_rpa" >
   <v>      34.72117179       1.73363404       1.20122402 </v>
   <v>       1.73363404      36.95414436      -0.65517147 </v>
   <v>       1.20122402      -0.65517147      37.44573868 </v>
  </varray>
  <kpoints>
   <generation param="Gamma">
    <v type="int" name="divisions">      13       13       13 </v>
    <v name="usershift">      0.00000000       0.00000000       0.00000000 </v>
    <v name="genvec1">      0.07692308       0.00000000       0.00000000 </v>
    <v name="genvec2">      0.00000000       0.07692308      -0.00000000 </v>
    <v name="genvec3">      0.00000000       0.00000000       0.07692308 </v>
    <v name="shift">      0.00000000       0.00000000       0.00000000 </v>
   </generation>
   <varray name="kpointlist" >
    <v>       0.00000000       0.00000000       0.00000000 </v>
    <v>       0.07692308       0.00000000       0.00000000 </v>
    <v>       0.15384615       0.00000000       0.00000000 </v>
    <v>       0.23076923       0.00000000      -0.00000000 </v>
    <v>       0.30769231       0.00000000       0.00000000 </v>
    <v>       0.38461538       0.00000000      -0.00000000 </v>
    <v>       0.46153846       0.00000000      -0.00000000 </v>
    <v>       0.00000000       0.07692308      -0.00000000 </v>
    <v>       0.07692308       0.07692308       0.00000000 </v>
    <v>       0.15384615       0.07692308      -0.00000000 </v>
    <v>       0.23076923       0.07692308      -0.00000000 </v>
    <v>       0.30769231       0.07692308       0.00000000 </v>
    <v>       0.38461538       0.07692308      -0.00000000 </v>
    <v>       0.46153846       0.07692308       0.00000000 </v>
    <v>      -0.46153846       0.07692308       0.00000000 </v>
    <v>      -0.38461538       0.07692308      -0.00000000 </v>
    <v>      -0.30769231       0.07692308       0.00000000 </v>
    <v>      -0.23076923       0.07692308       0.00000000 </v>
    <v>      -0.15384615       0.07692308      -0.00000000 </v>
    <v>      -0.07692308       0.07692308       0.00000000 </v>
    <v>       0.00000000       0.15384615      -0.00000000 </v>
    <v>       0.07692308       0.15384615       0.00000000 </v>
    <v>       0.15384615       0.15384615      -0.00000000 </v>
    <v>       0.23076923       0.15384615      -0.00000000 </v>
    <v>       0.30769231       0.15384615       0.00000000 </v>
    <v>       0.38461538       0.15384615      -0.00000000 </v>
    <v>       0.46153846       0.15384615       0.00000000 </v>
    <v>      -0.46153846       0.15384615       0.00000000 </v>
    <v>      -0.38461538       0.15384615      -0.00000000 </v>
    <v>      -0.30769231       0.15384615       0.00000000 </v>
    <v>      -0.23076923       0.15384615       0.00000000 </v>
    <v>      -0.15384615       0.15384615       0.00000000 </v>
    <v>      -0.07692308       0.15384615       0.00000000 </v>
    <v>       0.00000000       0.23076923       0.00000000 </v>
    <v>       0.07692308       0.23076923       0.00000000 </v>
    <v>       0.15384615       0.23076923      -0.00000000 </v>
    <v>       0.23076923       0.23076923      -0.00000000 </v>
    <v>       0.30769231       0.23076923      -0.00000000 </v>
    <v>       0.38461538       0.23076923       0.00000000 </v>
    <v>       0.46153846       0.23076923      -0.00000000 </v>
    <v>      -0.46153846       0.23076923      -0.00000000 </v>
    <v>      -0.38461538       0.23076923      -0.00000000 </v>
    <v>      -0.30769231       0.23076923      -0.00000000 </v>
    <v>      -0.23076923       0.23076923       0.00000000 </v>
    <v>      -0.15384615       0.23076923      -0.00000000 </v>
    <v>      -0.07692308       0.23076923      -0.00000000 </v>
    <v>       0.00000000       0.30769231      -0.00000000 </v>
    <v>       0.07692308       0.30769231      -0.00000000 </v>
    <v>       0.15384615       0.30769231       0.00000000 </v>
    <v>       0.23076923       0.30769231      -0.00000000 </v>
    <v>       0.30769231       0.30769231       0.00000000 </v>
    <v>       0.38461538       0.30769231      -0.00000000 </v>
    <v>       0.46153846       0.30769231       0.00000000 </v>
    <v>      -0.46153846       0.30769231      -0.00000000 </v>
    <v>      -0.38461538       0.30769231      -0.00000000 </v>
    <v>      -0.30769231       0.30769231      -0.00000000 </v>
    <v>      -0.23076923       0.30769231      -0.00000000 </v>
    <v>      -0.15384615       0.30769231      -0.00000000 </v>
    <v>      -0.07692308       0.30769231      -0.00000000 </v>
    <v>       0.00000000       0.38461538      -0.00000000 </v>
    <v>       0.07692308       0.38461538      -0.00000000 </v>
    <v>       0.15384615       0.38461538       0.00000000 </v>
    <v>       0.23076923       0.38461538      -0.00000000 </v>
    <v>       0.30769231       0.38461538      -0.00000000 </v>
    <v>       0.38461538       0.38461538      -0.00000000 </v>
    <v>       0.46153846       0.38461538      -0.00000000 </v>
    <v>      -0.46153846       0.38461538      -0.00000000 </v>
    <v>      -0.38461538       0.38461538      -0.00000000 </v>
    <v>      -0.30769231       0.38461538      -0.00000000 </v>
    <v>      -0.23076923       0.38461538      -0.00000000 </v>
    <v>      -0.15384615       0.38461538      -0.00000000 </v>
    <v>      -0.07692308       0.38461538      -0.00000000 </v>
    <v>       0.00000000       0.46153846       0.00000000 </v>
    <v>       0.07692308       0.46153846       0.00000000 </v>
    <v>       0.15384615       0.46153846       0.00000000 </v>
    <v>       0.23076923       0.46153846      -0.00000000 </v>
    <v>       0.30769231       0.46153846      -0.00000000 </v>
    <v>       0.38461538       0.46153846      -0.00000000 </v>
    <v>       0.46153846       0.46153846      -0.00000000 </v>
    <v>      -0.46153846       0.46153846       0.00000000 </v>
    <v>      -0.38461538       0.46153846      -0.00000000 </v>
    <v>      -0.30769231       0.46153846      -0.00000000 </v>
    <v>      -0.23076923       0.46153846       0.00000000 </v>
    <v>      -0.15384615       0.46153846      -0.00000000 </v>
    <v>      -0.07692308       0.46153846      -0.00000000 </v>
    <v>       0.00000000       0.07692308       0.07692308 </v>
    <v>       0.07692308       0.07692308       0.07692308 </v>
    <v>       0.15384615       0.07692308       0.07692308 </v>
    <v>       0.23076923       0.07692308       0.07692308 </v>
    <v>       0.30769231       0.07692308       0.07692308 </v>
    <v>       0.38461538       0.07692308       0.07692308 </v>
    <v>       0.46153846       0.07692308       0.07692308 </v>
    <v>      -0.46153846       0.07692308       0.07692308 </v>
    <v>      -0.38461538       0.07692308       0.07692308 </v>
    <v>      -0.30769231       0.07692308       0.07692308 </v>
    <v>      -0.23076923       0.07692308       0.07692308 </v>
    <v>      -0.15384615       0.07692308       0.07692308 </v>
    <v>      -0.07692308       0.07692308       0.07692308 </v>
    <v>       0.00000000       0.15384615       0.07692308 </v>
    <v>       0.07692308       0.15384615       0.07692308 </v>
    <v>       0.15384615       0.15384615       0.07692308 </v>
    <v>       0.23076923       0.15384615       0.07692308 </v>
    <v>       0.30769231       0.15384615       0.07692308 </v>
    <v>       0.38461538       0.15384615       0.07692308 </v>
    <v>       0.46153846       0.15384615       0.07692308 </v>
    <v>      -0.46153846       0.15384615       0.07692308 </v>
    <v>      -0.38461538       0.15384615       0.07692308 </v>
    <v>      -0.30769231       0.15384615       0.07692308 </v>
    <v>      -0.23076923       0.15384615       0.07692308 </v>
    <v>      -0.15384615       0.15384615       0.07692308 </v>
    <v>      -0.07692308       0.15384615       0.07692308 </v>
    <v>       0.00000000       0.23076923       0.07692308 </v>
    <v>       0.07692308       0.23076923       0.07692308 </v>
    <v>       0.15384615       0.23076923       0.07692308 </v>
    <v>       0.23076923       0.23076923       0.07692308 </v>
    <v>       0.30769231       0.23076923       0.07692308 </v>
    <v>       0.38461538       0.23076923       0.07692308 </v>
    <v>       0.46153846       0.23076923       0.07692308 </v>
    <v>      -0.46153846       0.23076923       0.07692308 </v>
    <v>      -0.38461538       0.23076923       0.07692308 </v>
    <v>      -0.30769231       0.23076923       0.07692308 </v>
    <v>      -0.23076923       0.23076923       0.07692308 </v>
    <v>      -0.15384615       0.23076923       0.07692308 </v>
    <v>      -0.07692308       0.23076923       0.07692308 </v>
    <v>       0.00000000       0.30769231       0.07692308 </v>
    <v>       0.07692308       0.30769231       0.07692308 </v>
    <v>       0.15384615       0.30769231       0.07692308 </v>
    <v>       0.23076923       0.30769231       0.07692308 </v>
    <v>       0.30769231       0.30769231       0.07692308 </v>
    <v>       0.38461538       0.30769231       0.07692308 </v>
    <v>       0.46153846       0.30769231       0.07692308 </v>
    <v>      -0.46153846       0.30769231       0.07692308 </v>
    <v>      -0.38461538       0.30769231       0.07692308 </v>
    <v>      -0.30769231       0.30769231       0.07692308 </v>
    <v>      -0.23076923       0.30769231       0.07692308 </v>
    <v>      -0.15384615       0.30769231       0.07692308 </v>
    <v>      -0.07692308       0.30769231       0.07692308 </v>
    <v>       0.00000000       0.38461538       0.07692308 </v>
    <v>       0.07692308       0.38461538       0.07692308 </v>
    <v>       0.15384615       0.38461538       0.07692308 </v>
    <v>       0.23076923       0.38461538       0.07692308 </v>
    <v>       0.30769231       0.38461538       0.07692308 </v>
    <v>       0.38461538       0.38461538       0.07692308 </v>
    <v>       0.46153846       0.38461538       0.07692308 </v>
    <v>      -0.46153846       0.38461538       0.07692308 </v>
    <v>      -0.38461538       0.38461538       0.07692308 </v>
    <v>      -0.30769231       0.38461538       0.07692308 </v>
    <v>      -0.23076923       0.38461538       0.07692308 </v>
    <v>      -0.15384615       0.38461538       0.07692308 </v>
    <v>      -0.07692308       0.38461538       0.07692308 </v>
    <v>       0.00000000       0.46153846       0.07692308 </v>
    <v>       0.07692308       0.46153846       0.07692308 </v>
    <v>       0.15384615       0.46153846       0.07692308 </v>
    <v>       0.23076923       0.46153846       0.07692308 </v>
    <v>       0.30769231       0.46153846       0.07692308 </v>
    <v>       0.38461538       0.46153846       0.07692308 </v>
    <v>       0.46153846       0.46153846       0.07692308 </v>
    <v>      -0.46153846       0.46153846       0.07692308 </v>
    <v>      -0.38461538       0.46153846       0.07692308 </v>
    <v>      -0.30769231       0.46153846       0.07692308 </v>
    <v>      -0.23076923       0.46153846       0.07692308 </v>
    <v>      -0.15384615       0.46153846       0.07692308 </v>
    <v>      -0.07692308       0.46153846       0.07692308 </v>
    <v>       0.00000000      -0.46153846       0.07692308 </v>
    <v>       0.07692308      -0.46153846       0.07692308 </v>
    <v>       0.15384615      -0.46153846       0.07692308 </v>
    <v>       0.23076923      -0.46153846       0.07692308 </v>
    <v>       0.30769231      -0.46153846       0.07692308 </v>
    <v>       0.38461538      -0.46153846       0.07692308 </v>
    <v>       0.46153846      -0.46153846       0.07692308 </v>
    <v>      -0.46153846      -0.46153846       0.07692308 </v>
    <v>      -0.38461538      -0.46153846       0.07692308 </v>
    <v>      -0.30769231      -0.46153846       0.07692308 </v>
    <v>      -0.23076923      -0.46153846       0.07692308 </v>
    <v>      -0.15384615      -0.46153846       0.07692308 </v>
    <v>      -0.07692308      -0.46153846       0.07692308 </v>
    <v>       0.00000000      -0.38461538       0.07692308 </v>
    <v>       0.07692308      -0.38461538       0.07692308 </v>
    <v>       0.15384615      -0.38461538       0.07692308 </v>
    <v>       0.23076923      -0.38461538       0.07692308 </v>
    <v>       0.30769231      -0.38461538       0.07692308 </v>
    <v>       0.38461538      -0.38461538       0.07692308 </v>
    <v>       0.46153846      -0.38461538       0.07692308 </v>
    <v>      -0.46153846      -0.38461538       0.07692308 </v>
    <v>      -0.38461538      -0.38461538       0.07692308 </v>
    <v>      -0.30769231      -0.38461538       0.07692308 </v>
    <v>      -0.23076923      -0.38461538       0.07692308 </v>
    <v>      -0.15384615      -0.38461538       0.07692308 </v>
    <v>      -0.07692308      -0.38461538       0.07692308 </v>
    <v>       0.00000000      -0.30769231       0.07692308 </v>
    <v>       0.07692308      -0.30769231       0.07692308 </v>
    <v>       0.15384615      -0.30769231       0.07692308 </v>
    <v>       0.23076923      -0.30769231       0.07692308 </v>
    <v>       0.30769231      -0.30769231       0.07692308 </v>
    <v>       0.38461538      -0.30769231       0.07692308 </v>
    <v>       0.46153846      -0.30769231       0.07692308 </v>
    <v>      -0.46153846      -0.30769231       0.07692308 </v>
    <v>      -0.38461538      -0.30769231       0.07692308 </v>
    <v>      -0.30769231      -0.30769231       0.07692308 </v>
    <v>      -0.23076923      -0.30769231       0.07692308 </v>
    <v>      -0.15384615      -0.30769231       0.07692308 </v>
    <v>      -0.07692308      -0.30769231       0.07692308 </v>
    <v>       0.00000000      -0.23076923       0.07692308 </v>
    <v>       0.07692308      -0.23076923       0.07692308 </v>
    <v>       0.15384615      -0.23076923       0.07692308 </v>
    <v>       0.23076923      -0.23076923       0.07692308 </v>
    <v>       0.30769231      -0.23076923       0.07692308 </v>
    <v>       0.38461538      -0.23076923       0.07692308 </v>
    <v>       0.46153846      -0.23076923       0.07692308 </v>
    <v>      -0.46153846      -0.23076923       0.07692308 </v>
    <v>      -0.38461538      -0.23076923       0.07692308 </v>
    <v>      -0.30769231      -0.23076923       0.07692308 </v>
    <v>      -0.23076923      -0.23076923       0.07692308 </v>
    <v>      -0.15384615      -0.23076923       0.07692308 </v>
    <v>      -0.07692308      -0.23076923       0.07692308 </v>
    <v>       0.00000000      -0.15384615       0.07692308 </v>
    <v>       0.07692308      -0.15384615       0.07692308 </v>
    <v>       0.15384615      -0.15384615       0.07692308 </v>
    <v>       0.23076923      -0.15384615       0.07692308 </v>
    <v>       0.30769231      -0.15384615       0.07692308 </v>
    <v>       0.38461538      -0.15384615       0.07692308 </v>
    <v>       0.46153846      -0.15384615       0.07692308 </v>
    <v>      -0.46153846      -0.15384615       0.07692308 </v>
    <v>      -0.38461538      -0.15384615       0.07692308 </v>
    <v>      -0.30769231      -0.15384615       0.07692308 </v>
    <v>      -0.23076923      -0.15384615       0.07692308 </v>
    <v>      -0.15384615      -0.15384615       0.07692308 </v>
    <v>      -0.07692308      -0.15384615       0.07692308 </v>
    <v>       0.00000000      -0.07692308       0.07692308 </v>
    <v>       0.07692308      -0.07692308       0.07692308 </v>
    <v>       0.15384615      -0.07692308       0.07692308 </v>
    <v>       0.23076923      -0.07692308       0.07692308 </v>
    <v>       0.30769231      -0.07692308       0.07692308 </v>
    <v>       0.38461538      -0.07692308       0.07692308 </v>
    <v>       0.46153846      -0.07692308       0.07692308 </v>
    <v>       0.00000000       0.15384615       0.15384615 </v>
    <v>       0.07692308       0.15384615       0.15384615 </v>
    <v>       0.15384615       0.15384615       0.15384615 </v>
    <v>       0.23076923       0.15384615       0.15384615 </v>
    <v>       0.30769231       0.15384615       0.15384615 </v>
    <v>       0.38461538       0.15384615       0.15384615 </v>
    <v>       0.46153846       0.15384615       0.15384615 </v>
    <v>      -0.46153846       0.15384615       0.15384615 </v>
    <v>      -0.38461538       0.15384615       0.15384615 </v>
    <v>      -0.30769231       0.15384615       0.15384615 </v>
    <v>      -0.23076923       0.15384615       0.15384615 </v>
    <v>      -0.15384615       0.15384615       0.15384615 </v>
    <v>      -0.07692308       0.15384615       0.15384615 </v>
    <v>       0.00000000       0.23076923       0.15384615 </v>
    <v>       0.07692308       0.23076923       0.15384615 </v>
    <v>       0.15384615       0.23076923       0.15384615 </v>
    <v>       0.23076923       0.23076923       0.15384615 </v>
    <v>       0.30769231       0.23076923       0.15384615 </v>
    <v>       0.38461538       0.23076923       0.15384615 </v>
    <v>       0.46153846       0.23076923       0.15384615 </v>
    <v>      -0.46153846       0.23076923       0.15384615 </v>
    <v>      -0.38461538       0.23076923       0.15384615 </v>
    <v>      -0.30769231       0.23076923       0.15384615 </v>
    <v>      -0.23076923       0.23076923       0.15384615 </v>
    <v>      -0.15384615       0.23076923       0.15384615 </v>
    <v>      -0.07692308       0.23076923       0.15384615 </v>
    <v>       0.00000000       0.30769231       0.15384615 </v>
    <v>       0.07692308       0.30769231       0.15384615 </v>
    <v>       0.15384615       0.30769231       0.15384615 </v>
    <v>       0.23076923       0.30769231       0.15384615 </v>
    <v>       0.30769231       0.30769231       0.15384615 </v>
    <v>       0.38461538       0.30769231       0.15384615 </v>
    <v>       0.46153846       0.30769231       0.15384615 </v>
    <v>      -0.46153846       0.30769231       0.15384615 </v>
    <v>      -0.38461538       0.30769231       0.15384615 </v>
    <v>      -0.30769231       0.30769231       0.15384615 </v>
    <v>      -0.23076923       0.30769231       0.15384615 </v>
    <v>      -0.15384615       0.30769231       0.15384615 </v>
    <v>      -0.07692308       0.30769231       0.15384615 </v>
    <v>       0.00000000       0.38461538       0.15384615 </v>
    <v>       0.07692308       0.38461538       0.15384615 </v>
    <v>       0.15384615       0.38461538       0.15384615 </v>
    <v>       0.23076923       0.38461538       0.15384615 </v>
    <v>       0.30769231       0.38461538       0.15384615 </v>
    <v>       0.38461538       0.38461538       0.15384615 </v>
    <v>       0.46153846       0.38461538       0.15384615 </v>
    <v>      -0.46153846       0.38461538       0.15384615 </v>
    <v>      -0.38461538       0.38461538       0.15384615 </v>
    <v>      -0.30769231       0.38461538       0.15384615 </v>
    <v>      -0.23076923       0.38461538       0.15384615 </v>
    <v>      -0.15384615       0.38461538       0.15384615 </v>
    <v>      -0.07692308       0.38461538       0.15384615 </v>
    <v>       0.00000000       0.46153846       0.15384615 </v>
    <v>       0.07692308       0.46153846       0.15384615 </v>
    <v>       0.15384615       0.46153846       0.15384615 </v>
    <v>       0.23076923       0.46153846       0.15384615 </v>
    <v>       0.30769231       0.46153846       0.15384615 </v>
    <v>       0.38461538       0.46153846       0.15384615 </v>
    <v>       0.46153846       0.46153846       0.15384615 </v>
    <v>      -0.46153846       0.46153846       0.15384615 </v>
    <v>      -0.38461538       0.46153846       0.15384615 </v>
    <v>      -0.30769231       0.46153846       0.15384615 </v>
    <v>      -0.23076923       0.46153846       0.15384615 </v>
    <v>      -0.15384615       0.46153846       0.15384615 </v>
    <v>      -0.07692308       0.46153846       0.15384615 </v>
    <v>       0.00000000      -0.46153846       0.15384615 </v>
    <v>       0.07692308      -0.46153846       0.15384615 </v>
    <v>       0.15384615      -0.46153846       0.15384615 </v>
    <v>       0.23076923      -0.46153846       0.15384615 </v>
    <v>       0.30769231      -0.46153846       0.15384615 </v>
    <v>       0.38461538      -0.46153846       0.15384615 </v>
    <v>       0.46153846      -0.46153846       0.15384615 </v>
    <v>      -0.46153846      -0.46153846       0.15384615 </v>
    <v>      -0.38461538      -0.46153846       0.15384615 </v>
    <v>      -0.30769231      -0.46153846       0.15384615 </v>
    <v>      -0.23076923      -0.46153846       0.15384615 </v>
    <v>      -0.15384615      -0.46153846       0.15384615 </v>
    <v>      -0.07692308      -0.46153846       0.15384615 </v>
    <v>       0.00000000      -0.38461538       0.15384615 </v>
    <v>       0.07692308      -0.38461538       0.15384615 </v>
    <v>       0.15384615      -0.38461538       0.15384615 </v>
    <v>       0.23076923      -0.38461538       0.15384615 </v>
    <v>       0.30769231      -0.38461538       0.15384615 </v>
    <v>       0.38461538      -0.38461538       0.15384615 </v>
    <v>       0.46153846      -0.38461538       0.15384615 </v>
    <v>      -0.46153846      -0.38461538       0.15384615 </v>
    <v>      -0.38461538      -0.38461538       0.15384615 </v>
    <v>      -0.30769231      -0.38461538       0.15384615 </v>
    <v>      -0.23076923      -0.38461538       0.15384615 </v>
    <v>      -0.15384615      -0.38461538       0.15384615 </v>
    <v>      -0.07692308      -0.38461538       0.15384615 </v>
    <v>       0.00000000      -0.30769231       0.15384615 </v>
    <v>       0.07692308      -0.30769231       0.15384615 </v>
    <v>       0.15384615      -0.30769231       0.15384615 </v>
    <v>       0.23076923      -0.30769231       0.15384615 </v>
    <v>       0.30769231      -0.30769231       0.15384615 </v>
    <v>       0.38461538      -0.30769231       0.15384615 </v>
    <v>       0.46153846      -0.30769231       0.15384615 </v>
    <v>      -0.46153846      -0.30769231       0.15384615 </v>
    <v>      -0.38461538      -0.30769231       0.15384615 </v>
    <v>      -0.30769231      -0.30769231       0.15384615 </v>
    <v>      -0.23076923      -0.30769231       0.15384615 </v>
    <v>      -0.15384615      -0.30769231       0.15384615 </v>
    <v>      -0.07692308      -0.30769231       0.15384615 </v>
    <v>       0.00000000      -0.23076923       0.15384615 </v>
    <v>       0.07692308      -0.23076923       0.15384615 </v>
    <v>       0.15384615      -0.23076923       0.15384615 </v>
    <v>       0.23076923      -0.23076923       0.15384615 </v>
    <v>       0.30769231      -0.23076923       0.15384615 </v>
    <v>       0.38461538      -0.23076923       0.15384615 </v>
    <v>       0.46153846      -0.23076923       0.15384615 </v>
    <v>      -0.46153846      -0.23076923       0.15384615 </v>
    <v>      -0.38461538      -0.23076923       0.15384615 </v>
    <v>      -0.30769231      -0.23076923       0.15384615 </v>
    <v>      -0.23076923      -0.23076923       0.15384615 </v>
    <v>      -0.15384615      -0.23076923       0.15384615 </v>
    <v>      -0.07692308      -0.23076923       0.15384615 </v>
    <v>       0.00000000      -0.15384615       0.15384615 </v>
    <v>       0.07692308      -0.15384615       0.15384615 </v>
    <v>       0.15384615      -0.15384615       0.15384615 </v>
    <v>       0.23076923      -0.15384615       0.15384615 </v>
    <v>       0.30769231      -0.15384615       0.15384615 </v>
    <v>       0.38461538      -0.15384615       0.15384615 </v>
    <v>       0.46153846      -0.15384615       0.15384615 </v>
    <v>       0.00000000       0.23076923       0.23076923 </v>
    <v>       0.07692308       0.23076923       0.23076923 </v>
    <v>       0.15384615       0.23076923       0.23076923 </v>
    <v>       0.23076923       0.23076923       0.23076923 </v>
    <v>       0.30769231       0.23076923       0.23076923 </v>
    <v>       0.38461538       0.23076923       0.23076923 </v>
    <v>       0.46153846       0.23076923       0.23076923 </v>
    <v>      -0.46153846       0.23076923       0.23076923 </v>
    <v>      -0.38461538       0.23076923       0.23076923 </v>
    <v>      -0.30769231       0.23076923       0.23076923 </v>
    <v>      -0.23076923       0.23076923       0.23076923 </v>
    <v>      -0.15384615       0.23076923       0.23076923 </v>
[...]
       <r>   18.4136    0.0000 </r>
       <r>   18.5286    0.0000 </r>
       <r>   19.9097    0.0000 </r>
       <r>   21.4886    0.0000 </r>
       <r>   22.1637    0.0000 </r>
       <r>   22.4555    0.0000 </r>
       <r>   23.2294    0.0000 </r>
       <r>   24.0618    0.0000 </r>
       <r>   24.6680    0.0000 </r>
       <r>   26.1113    0.0000 </r>
       <r>   27.0967    0.0000 </r>
       <r>   27.7219    0.0000 </r>
       <r>   28.8306    0.0000 </r>
       <r>   29.3982    0.0000 </r>
       <r>   31.2703    0.0000 </r>
       <r>   31.9544    0.0000 </r>
       <r>   32.7954    0.0000 </r>
       <r>   32.8359    0.0000 </r>
       <r>   33.7389    0.0000 </r>
       <r>   35.5698    0.0000 </r>
       <r>   35.5812    0.0000 </r>
       <r>   36.1299    0.0000 </r>
       <r>   36.7257    0.0000 </r>
       <r>   36.7893    0.0000 </r>
       <r>   37.7665    0.0000 </r>
       <r>   39.2797    0.0000 </r>
      </set>
      <set comment="kpoint 230">
       <r>   -6.7282    1.0000 </r>
       <r>   -3.4281    1.0000 </r>
       <r>    3.6091    1.0000 </r>
       <r>    3.6091    1.0000 </r>
       <r>    4.5611    1.0000 </r>
       <r>    5.8984    0.0000 </r>
       <r>    5.8984    0.0000 </r>
       <r>    6.3750    0.0000 </r>
       <r>   12.6246    0.0000 </r>
       <r>   14.2864    0.0000 </r>
       <r>   14.2864    0.0000 </r>
       <r>   15.1551    0.0000 </r>
       <r>   15.6816    0.0000 </r>
       <r>   15.6816    0.0000 </r>
       <r>   19.3830    0.0000 </r>
       <r>   19.3830    0.0000 </r>
       <r>   20.3219    0.0000 </r>
       <r>   20.9943    0.0000 </r>
       <r>   21.0069    0.0000 </r>
       <r>   21.0069    0.0000 </r>
       <r>   22.6856    0.0000 </r>
       <r>   23.8774    0.0000 </r>
       <r>   27.8216    0.0000 </r>
       <r>   28.5275    0.0000 </r>
       <r>   28.5275    0.0000 </r>
       <r>   28.9128    0.0000 </r>
       <r>   28.9128    0.0000 </r>
       <r>   30.3948    0.0000 </r>
       <r>   30.7316    0.0000 </r>
       <r>   30.7316    0.0000 </r>
       <r>   32.1066    0.0000 </r>
       <r>   32.1066    0.0000 </r>
       <r>   32.6692    0.0000 </r>
       <r>   32.6851    0.0000 </r>
       <r>   35.7669    0.0000 </r>
       <r>   37.9255    0.0000 </r>
       <r>   37.9255    0.0000 </r>
       <r>   38.7111    0.0000 </r>
       <r>   38.7111    0.0000 </r>
       <r>   39.6300    0.0000 </r>
      </set>
      <set comment="kpoint 231">
       <r>   -6.6636    1.0000 </r>
       <r>   -3.4368    1.0000 </r>
       <r>    2.8752    1.0000 </r>
       <r>    3.4633    1.0000 </r>
       <r>    4.6489    1.0000 </r>
       <r>    5.8830    0.0000 </r>
       <r>    6.0800    0.0000 </r>
       <r>    7.1573    0.0000 </r>
       <r>   12.4549    0.0000 </r>
       <r>   14.1120    0.0000 </r>
       <r>   14.1197    0.0000 </r>
       <r>   15.0973    0.0000 </r>
       <r>   16.0042    0.0000 </r>
       <r>   16.2206    0.0000 </r>
       <r>   18.8677    0.0000 </r>
       <r>   19.7182    0.0000 </r>
       <r>   20.5263    0.0000 </r>
       <r>   20.7340    0.0000 </r>
       <r>   21.1179    0.0000 </r>
       <r>   21.8503    0.0000 </r>
       <r>   22.3460    0.0000 </r>
       <r>   23.8630    0.0000 </r>
       <r>   26.4628    0.0000 </r>
       <r>   27.3076    0.0000 </r>
       <r>   28.4310    0.0000 </r>
       <r>   29.1713    0.0000 </r>
       <r>   29.2596    0.0000 </r>
       <r>   29.6683    0.0000 </r>
       <r>   30.5339    0.0000 </r>
       <r>   31.0937    0.0000 </r>
       <r>   31.9984    0.0000 </r>
       <r>   32.2805    0.0000 </r>
       <r>   33.8597    0.0000 </r>
       <r>   34.1692    0.0000 </r>
       <r>   34.9441    0.0000 </r>
       <r>   37.1578    0.0000 </r>
       <r>   37.4979    0.0000 </r>
       <r>   38.0226    0.0000 </r>
       <r>   38.5241    0.0000 </r>
       <r>   39.3672    0.0000 </r>
      </set>
     </set>
    </set>
   </array>
  </eigenvalues>
  <separator name="orbital magnetization" >
   <v name="MAGDIPOLOUT">      0.00000000      0.00000000      0.00000000</v>
  </separator>
  <dos>
   <i name="efermi">      5.16151579 </i>
   <total>
    <array>
     <dimension dim="1">gridpoints</dimension>
     <dimension dim="2">spin</dimension>
     <field>energy</field>
     <field>total</field>
     <field>integrated</field>
     <set>
      <set comment="spin 1">
       <r>   -10.2844     0.0000     0.0000 </r>
       <r>   -10.1091     0.0000     0.0000 </r>
       <r>    -9.9339     0.0000     0.0000 </r>
       <r>    -9.7586     0.0000     0.0000 </r>
       <r>    -9.5833     0.0000     0.0000 </r>
       <r>    -9.4080     0.0000     0.0000 </r>
       <r>    -9.2328     0.0000     0.0000 </r>
       <r>    -9.0575     0.0000     0.0000 </r>
       <r>    -8.8822     0.0000     0.0000 </r>
       <r>    -8.7069     0.0000     0.0000 </r>
       <r>    -8.5317     0.0000     0.0000 </r>
       <r>    -8.3564     0.0000     0.0000 </r>
       <r>    -8.1811     0.0000     0.0000 </r>
       <r>    -8.0059     0.0000     0.0000 </r>
       <r>    -7.8306     0.0423     0.0074 </r>
       <r>    -7.6553     0.2343     0.0485 </r>
       <r>    -7.4800     0.3451     0.1090 </r>
       <r>    -7.3048     0.4111     0.1810 </r>
       <r>    -7.1295     0.5716     0.2812 </r>
       <r>    -6.9542     0.6747     0.3995 </r>
       <r>    -6.7789     0.8704     0.5520 </r>
       <r>    -6.6037     0.9614     0.7205 </r>
       <r>    -6.4284     1.3799     0.9624 </r>
       <r>    -6.2531     1.6075     1.2441 </r>
       <r>    -6.0779     2.3118     1.6493 </r>
       <r>    -5.9026     1.9159     1.9852 </r>
       <r>    -5.7273     0.0847     2.0000 </r>
       <r>    -5.5520     0.0000     2.0000 </r>
       <r>    -5.3768     0.0000     2.0000 </r>
       <r>    -5.2015     0.0000     2.0000 </r>
       <r>    -5.0262     0.0000     2.0000 </r>
       <r>    -4.8509     0.0000     2.0000 </r>
       <r>    -4.6757     0.0000     2.0000 </r>
       <r>    -4.5004     0.0000     2.0000 </r>
       <r>    -4.3251     0.0000     2.0000 </r>
       <r>    -4.1499     0.0000     2.0000 </r>
       <r>    -3.9746     0.0000     2.0000 </r>
       <r>    -3.7993     0.0088     2.0015 </r>
       <r>    -3.6240     0.2750     2.0498 </r>
       <r>    -3.4488     0.6139     2.1574 </r>
       <r>    -3.2735     1.4952     2.4194 </r>
       <r>    -3.0982     1.8118     2.7370 </r>
       <r>    -2.9229     1.6307     3.0228 </r>
       <r>    -2.7477     1.2629     3.2442 </r>
       <r>    -2.5724     0.9779     3.4156 </r>
       <r>    -2.3971     0.7582     3.5484 </r>
       <r>    -2.2219     0.7080     3.6725 </r>
       <r>    -2.0466     0.1973     3.7071 </r>
       <r>    -1.8713     0.3840     3.7744 </r>
       <r>    -1.6960     0.3952     3.8437 </r>
       <r>    -1.5208     0.0689     3.8558 </r>
       <r>    -1.3455     0.2334     3.8967 </r>
       <r>    -1.1702     0.2449     3.9396 </r>
       <r>    -0.9949     0.0152     3.9423 </r>
       <r>    -0.8197     0.1029     3.9603 </r>
       <r>    -0.6444     0.1194     3.9812 </r>
       <r>    -0.4691     0.0292     3.9864 </r>
       <r>    -0.2939     0.0567     3.9963 </r>
       <r>    -0.1186     0.0171     3.9993 </r>
       <r>     0.0567     0.3679     4.0638 </r>
       <r>     0.2320     0.6456     4.1769 </r>
       <r>     0.4072     0.7741     4.3126 </r>
       <r>     0.5825     0.7367     4.4417 </r>
       <r>     0.7578     1.1115     4.6365 </r>
       <r>     0.9331     0.5992     4.7416 </r>
       <r>     1.1083     1.2441     4.9596 </r>
       <r>     1.2836     0.8920     5.1160 </r>
       <r>     1.4589     1.4302     5.3666 </r>
       <r>     1.6341     1.2302     5.5822 </r>
       <r>     1.8094     1.7254     5.8847 </r>
       <r>     1.9847     1.6522     6.1742 </r>
       <r>     2.1600     1.5855     6.4521 </r>
       <r>     2.3352     1.6266     6.7372 </r>
       <r>     2.5105     1.4684     6.9946 </r>
       <r>     2.6858     1.9043     7.3284 </r>
       <r>     2.8611     1.4214     7.5775 </r>
       <r>     3.0363     1.5754     7.8536 </r>
       <r>     3.2116     2.2255     8.2437 </r>
       <r>     3.3869     1.4976     8.5062 </r>
       <r>     3.5622     0.9648     8.6753 </r>
       <r>     3.7374     1.2343     8.8916 </r>
       <r>     3.9127     1.2699     9.1142 </r>
       <r>     4.0880     1.3004     9.3421 </r>
       <r>     4.2632     1.0669     9.5291 </r>
       <r>     4.4385     1.2131     9.7417 </r>
       <r>     4.6138     1.0151     9.9197 </r>
       <r>     4.7891     0.3745     9.9853 </r>
       <r>     4.9643     0.0804     9.9994 </r>
       <r>     5.1396     0.0034    10.0000 </r>
       <r>     5.3149     0.0000    10.0000 </r>
       <r>     5.4902     0.0066    10.0012 </r>
       <r>     5.6654     0.0605    10.0118 </r>
       <r>     5.8407     0.5032    10.1000 </r>
       <r>     6.0160     1.2491    10.3189 </r>
       <r>     6.1912     2.0338    10.6754 </r>
       <r>     6.3665     1.8249    10.9952 </r>
       <r>     6.5418     1.2071    11.2068 </r>
       <r>     6.7171     1.0554    11.3918 </r>
       <r>     6.8923     1.8797    11.7213 </r>
       <r>     7.0676     1.1967    11.9310 </r>
       <r>     7.2429     1.3561    12.1687 </r>
       <r>     7.4182     1.1664    12.3732 </r>
       <r>     7.5934     1.7261    12.6757 </r>
       <r>     7.7687     1.9834    13.0233 </r>
       <r>     7.9440     1.7675    13.3331 </r>
       <r>     8.1192     1.2538    13.5529 </r>
       <r>     8.2945     1.1489    13.7543 </r>
       <r>     8.4698     0.8934    13.9109 </r>
       <r>     8.6451     1.5568    14.1837 </r>
       <r>     8.8203     1.5215    14.4504 </r>
       <r>     8.9956     1.4804    14.7099 </r>
       <r>     9.1709     1.0449    14.8930 </r>
       <r>     9.3462     0.9846    15.0656 </r>
       <r>     9.5214     1.0510    15.2498 </r>
       <r>     9.6967     0.7748    15.3856 </r>
       <r>     9.8720     1.2096    15.5976 </r>
       <r>    10.0472     1.5199    15.8640 </r>
       <r>    10.2225     1.8725    16.1922 </r>
       <r>    10.3978     1.4069    16.4388 </r>
       <r>    10.5731     1.5264    16.7064 </r>
       <r>    10.7483     1.6689    16.9989 </r>
       <r>    10.9236     1.3576    17.2368 </r>
       <r>    11.0989     1.1198    17.4331 </r>
       <r>    11.2742     1.3012    17.6612 </r>
       <r>    11.4494     1.0998    17.8539 </r>
       <r>    11.6247     0.9207    18.0153 </r>
       <r>    11.8000     0.8495    18.1642 </r>
       <r>    11.9752     1.0057    18.3405 </r>
       <r>    12.1505     0.9229    18.5022 </r>
       <r>    12.3258     0.9185    18.6632 </r>
       <r>    12.5011     0.8967    18.8204 </r>
       <r>    12.6763     1.0925    19.0118 </r>
       <r>    12.8516     0.9373    19.1761 </r>
       <r>    13.0269     0.8729    19.3291 </r>
       <r>    13.2022     1.4027    19.5750 </r>
       <r>    13.3774     1.1413    19.7750 </r>
       <r>    13.5527     1.3548    20.0125 </r>
       <r>    13.7280     1.4276    20.2627 </r>
       <r>    13.9032     1.4966    20.5250 </r>
       <r>    14.0785     1.6766    20.8189 </r>
       <r>    14.2538     1.7693    21.1290 </r>
       <r>    14.4291     1.6032    21.4100 </r>
       <r>    14.6043     1.5659    21.6845 </r>
       <r>    14.7796     1.7354    21.9886 </r>
       <r>    14.9549     1.6346    22.2751 </r>
       <r>    15.1302     2.1155    22.6459 </r>
       <r>    15.3054     2.0308    23.0018 </r>
       <r>    15.4807     2.4349    23.4286 </r>
       <r>    15.6560     1.4586    23.6843 </r>
       <r>    15.8313     1.9617    24.0281 </r>
       <r>    16.0065     2.0242    24.3829 </r>
       <r>    16.1818     1.6215    24.6671 </r>
       <r>    16.3571     2.3975    25.0873 </r>
       <r>    16.5323     1.7993    25.4027 </r>
       <r>    16.7076     1.6091    25.6847 </r>
       <r>    16.8829     1.4985    25.9474 </r>
       <r>    17.0582     1.9064    26.2815 </r>
       <r>    17.2334     2.1708    26.6620 </r>
       <r>    17.4087     1.5697    26.9371 </r>
       <r>    17.5840     1.8324    27.2583 </r>
       <r>    17.7593     1.5500    27.5300 </r>
       <r>    17.9345     2.0386    27.8873 </r>
       <r>    18.1098     1.7569    28.1952 </r>
       <r>    18.2851     2.3509    28.6073 </r>
       <r>    18.4603     2.4628    29.0389 </r>
       <r>    18.6356     2.1992    29.4244 </r>
       <r>    18.8109     1.5621    29.6982 </r>
       <r>    18.9862     1.7359    30.0024 </r>
       <r>    19.1614     2.2116    30.3901 </r>
       <r>    19.3367     1.8664    30.7172 </r>
       <r>    19.5120     2.0583    31.0780 </r>
       <r>    19.6873     2.3359    31.4874 </r>
       <r>    19.8625     2.0462    31.8460 </r>
       <r>    20.0378     2.5105    32.2861 </r>
       <r>    20.2131     1.9179    32.6222 </r>
       <r>    20.3883     2.2903    33.0236 </r>
       <r>    20.5636     2.1002    33.3917 </r>
       <r>    20.7389     2.0913    33.7583 </r>
       <r>    20.9142     1.8762    34.0871 </r>
       <r>    21.0894     2.0862    34.4528 </r>
       <r>    21.2647     2.2468    34.8466 </r>
       <r>    21.4400     2.1797    35.2286 </r>
       <r>    21.6153     2.0314    35.5847 </r>
       <r>    21.7905     2.3376    35.9944 </r>
       <r>    21.9658     2.1126    36.3647 </r>
       <r>    22.1411     2.2560    36.7601 </r>
       <r>    22.3163     2.0378    37.1173 </r>
       <r>    22.4916     1.9196    37.4537 </r>
       <r>    22.6669     2.5006    37.8920 </r>
       <r>    22.8422     2.5458    38.3382 </r>
       <r>    23.0174     2.3164    38.7442 </r>
       <r>    23.1927     1.8115    39.0617 </r>
       <r>    23.3680     2.2010    39.4475 </r>
       <r>    23.5433     2.5797    39.8997 </r>
       <r>    23.7185     2.4338    40.3263 </r>
       <r>    23.8938     2.3038    40.7300 </r>
       <r>    24.0691     2.3277    41.1380 </r>
       <r>    24.2443     2.5722    41.5889 </r>
       <r>    24.4196     2.3391    41.9988 </r>
       <r>    24.5949     2.4190    42.4228 </r>
       <r>    24.7702     2.0423    42.7808 </r>
       <r>    24.9454     2.0170    43.1343 </r>
       <r>    25.1207     2.4394    43.5619 </r>
       <r>    25.2960     2.2960    43.9643 </r>
       <r>    25.4713     2.6103    44.4218 </r>
       <r>    25.6465     2.3266    44.8296 </r>
       <r>    25.8218     2.3602    45.2433 </r>
       <r>    25.9971     2.5443    45.6893 </r>
       <r>    26.1724     2.6611    46.1557 </r>
       <r>    26.3476     2.0985    46.5235 </r>
       <r>    26.5229     2.7244    47.0010 </r>
       <r>    26.6982     2.7840    47.4889 </r>
       <r>    26.8734     2.0709    47.8519 </r>
       <r>    27.0487     2.3215    48.2588 </r>
       <r>    27.2240     2.5273    48.7018 </r>
       <r>    27.3993     2.7786    49.1888 </r>
       <r>    27.5745     2.9181    49.7003 </r>
       <r>    27.7498     2.9680    50.2205 </r>
       <r>    27.9251     2.6580    50.6864 </r>
       <r>    28.1004     2.4588    51.1173 </r>
       <r>    28.2756     2.5596    51.5660 </r>
       <r>    28.4509     2.5536    52.0135 </r>
       <r>    28.6262     2.5156    52.4544 </r>
       <r>    28.8014     2.6271    52.9149 </r>
       <r>    28.9767     3.0145    53.4432 </r>
       <r>    29.1520     2.6088    53.9005 </r>
       <r>    29.3273     2.4575    54.3312 </r>
       <r>    29.5025     2.9855    54.8545 </r>
       <r>    29.6778     2.2916    55.2562 </r>
       <r>    29.8531     2.0844    55.6215 </r>
       <r>    30.0284     3.0855    56.1623 </r>
       <r>    30.2036     2.4592    56.5934 </r>
       <r>    30.3789     2.2372    56.9855 </r>
       <r>    30.5542     2.4823    57.4206 </r>
       <r>    30.7294     1.8517    57.7451 </r>
       <r>    30.9047     2.3027    58.1487 </r>
       <r>    31.0800     2.5111    58.5888 </r>
       <r>    31.2553     2.6859    59.0596 </r>
       <r>    31.4305     2.9949    59.5845 </r>
       <r>    31.6058     2.5064    60.0238 </r>
       <r>    31.7811     2.7863    60.5122 </r>
       <r>    31.9564     2.3111    60.9173 </r>
       <r>    32.1316     2.8817    61.4223 </r>
       <r>    32.3069     2.9991    61.9480 </r>
       <r>    32.4822     2.7572    62.4313 </r>
       <r>    32.6574     2.9020    62.9399 </r>
       <r>    32.8327     3.1568    63.4932 </r>
       <r>    33.0080     2.8924    64.0001 </r>
       <r>    33.1833     2.6534    64.4652 </r>
       <r>    33.3585     3.0099    64.9928 </r>
       <r>    33.5338     2.6901    65.4643 </r>
       <r>    33.7091     2.7080    65.9389 </r>
       <r>    33.8844     2.2444    66.3323 </r>
       <r>    34.0596     3.2610    66.9038 </r>
       <r>    34.2349     3.0504    67.4385 </r>
       <r>    34.4102     2.4857    67.8742 </r>
       <r>    34.5854     2.6163    68.3327 </r>
       <r>    34.7607     2.5475    68.7792 </r>
       <r>    34.9360     2.6985    69.2522 </r>
       <r>    35.1113     2.7538    69.7349 </r>
       <r>    35.2865     2.4516    70.1646 </r>
       <r>    35.4618     2.6305    70.6256 </r>
       <r>    35.6371     2.9204    71.1375 </r>
       <r>    35.8124     2.7764    71.6241 </r>
       <r>    35.9876     2.8821    72.1293 </r>
       <r>    36.1629     3.2301    72.6954 </r>
       <r>    36.3382     2.6620    73.1620 </r>
       <r>    36.5134     2.8052    73.6537 </r>
       <r>    36.6887     3.1216    74.2008 </r>
       <r>    36.8640     2.4984    74.6387 </r>
       <r>    37.0393     2.7314    75.1175 </r>
       <r>    37.2145     2.4631    75.5492 </r>
       <r>    37.3898     2.0233    75.9038 </r>
       <r>    37.5651     3.1270    76.4519 </r>
       <r>    37.7404     3.0115    76.9797 </r>
       <r>    37.9156     2.5371    77.4244 </r>
       <r>    38.0909     2.1816    77.8068 </r>
       <r>    38.2662     2.1307    78.1802 </r>
       <r>    38.4415     2.1441    78.5560 </r>
       <r>    38.6167     1.3700    78.7961 </r>
       <r>    38.7920     1.8194    79.1150 </r>
       <r>    38.9673     1.0598    79.3008 </r>
       <r>    39.1425     1.1300    79.4988 </r>
       <r>    39.3178     1.1661    79.7032 </r>
       <r>    39.4931     0.8763    79.8568 </r>
       <r>    39.6684     0.6759    79.9753 </r>
       <r>    39.8436     0.0809    79.9895 </r>
       <r>    40.0189     0.0600    80.0000 </r>
       <r>    40.1942     0.0001    80.0000 </r>
       <r>    40.3695     0.0000    80.0000 </r>
       <r>    40.5447     0.0000    80.0000 </r>
       <r>    40.7200     0.0000    80.0000 </r>
       <r>    40.8953     0.0000    80.0000 </r>
       <r>    41.0705     0.0000    80.0000 </r>
       <r>    41.2458     0.0000    80.0000 </r>
       <r>    41.4211     0.0000    80.0000 </r>
       <r>    41.5964     0.0000    80.0000 </r>
       <r>    41.7716     0.0000    80.0000 </r>
       <r>    41.9469     0.0000    80.0000 </r>
       <r>    42.1222     0.0000    80.0000 </r>
       <r>    42.2975     0.0000    80.0000 </r>
      </set>
     </set>
    </array>
   </total>
  </dos>
 </calculation>
 <structure name="finalpos" >
  <crystal>
   <varray name="basis" >
    <v>       4.41234324       0.00000000       0.00000000 </v>
    <v>       2.38904645      -3.70961318       0.00000000 </v>
    <v>       2.38904645      -1.30303344      -3.47323103 </v>
   </varray>
   <i name="volume">     56.85014637 </i>
   <varray name="rec_basis" >
    <v>       0.22663695       0.14595759       0.10113309 </v>
    <v>       0.00000000      -0.26956989       0.10113309 </v>
    <v>       0.00000000       0.00000000      -0.28791635 </v>
   </varray>
  </crystal>
  <varray name="positions" >
   <v>       0.00000000       0.00000000       0.00000000 </v>
   <v>       0.46672013       0.46672013       0.46672013 </v>
  </varray>
 </structure>
</modeling>
