# Converted from POSCAR to lammps format

12442 atoms
3 atom types

0.000000   71.204256   xlo xhi
0.000000   71.204256   ylo yhi
0.000000   71.204256   zlo zhi

  0.000000    0.000000    0.000000   xy xz yz

Atoms

   1  1      20.767908 20.767908 47.469504
   2  1      59.336880 5.933688 23.734752
   3  1      26.701596 11.867376 38.568972
   4  1      29.668440 35.602128 65.270568
   5  1      38.568972 62.303724 35.602128
   6  1      44.502660 47.469504 50.436348
   7  1      56.370036 32.635284 47.469504
   8  1      62.303724 35.602128 38.568972
   9  1      65.270568 17.801064 65.270568
  10  1      50.436348 53.403192 68.237412
  11  1      56.370036 26.701596 53.403192
  12  1      23.734752 2.966844 32.635284
  13  1      0.000000 38.568972 62.303724
  14  1      32.635284 65.270568 44.502660
  15  1      2.966844 32.635284 11.867376
  16  1      0.000000 17.801064 29.668440
  17  1      38.568972 8.900532 35.602128
  18  1      17.801064 8.900532 44.502660
  19  1      2.966844 0.000000 26.701596
  20  1      32.635284 17.801064 2.966844
  21  1      68.237412 53.403192 8.900532
  22  1      11.867376 41.535816 47.469504
  23  1      53.403192 2.966844 2.966844
  24  1      53.403192 59.336880 65.270568
  25  1      68.237412 56.370036 23.734752
  26  1      50.436348 23.734752 14.834220
  27  1      2.966844 38.568972 29.668440
  28  1      11.867376 53.403192 0.000000
  29  1      68.237412 53.403192 62.303724
  30  1      8.900532 38.568972 0.000000
  31  1      41.535816 17.801064 41.535816
  32  1      59.336880 41.535816 35.602128
  33  1      35.602128 26.701596 62.303724
  34  1      65.270568 29.668440 29.668440
  35  1      14.834220 8.900532 65.270568
  36  1      35.602128 53.403192 41.535816
  37  1      35.602128 23.734752 5.933688
  38  1      0.000000 44.502660 8.900532
  39  1      56.370036 8.900532 17.801064
  40  1      17.801064 62.303724 50.436348
  41  1      68.237412 38.568972 59.336880
  42  1      26.701596 32.635284 23.734752
  43  1      23.734752 8.900532 62.303724
  44  1      59.336880 17.801064 35.602128
  45  1      47.469504 2.966844 56.370036
  46  1      65.270568 17.801064 41.535816
  47  1      59.336880 35.602128 29.668440
  48  1      11.867376 32.635284 2.966844
  49  1      47.469504 8.900532 68.237412
  50  1      5.933688 65.270568 23.734752
  51  1      59.336880 68.237412 68.237412
  52  1      47.469504 8.900532 14.834220
  53  1      68.237412 56.370036 53.403192
  54  1      35.602128 47.469504 5.933688
  55  1      11.867376 14.834220 26.701596
  56  1      59.336880 53.403192 53.403192
  57  1      8.900532 47.469504 26.701596
  58  1      50.436348 56.370036 29.668440
  59  1      14.834220 50.436348 5.933688
  60  1      11.867376 62.303724 14.834220
  61  1      41.535816 44.502660 26.701596
  62  1      62.303724 29.668440 50.436348
  63  1      53.403192 5.933688 17.801064
  64  1      38.568972 14.834220 53.403192
  65  1      47.469504 41.535816 47.469504
  66  1      29.668440 11.867376 35.602128
  67  1      5.933688 59.336880 35.602128
  68  1      53.403192 38.568972 32.635284
  69  1      8.900532 20.767908 0.000000
  70  1      26.701596 29.668440 38.568972
  71  1      11.867376 29.668440 11.867376
  72  1      41.535816 23.734752 23.734752
  73  1      68.237412 0.000000 14.834220
  74  1      0.000000 29.668440 47.469504
  75  1      41.535816 32.635284 68.237412
  76  1      26.701596 29.668440 2.966844
  77  1      68.237412 26.701596 59.336880
  78  1      56.370036 41.535816 2.966844
  79  1      14.834220 41.535816 20.767908
  80  1      50.436348 53.403192 14.834220
  81  1      50.436348 41.535816 2.966844
  82  1      8.900532 29.668440 20.767908
  83  1      62.303724 68.237412 17.801064
  84  1      5.933688 32.635284 8.900532
  85  1      56.370036 53.403192 8.900532
  86  1      11.867376 5.933688 11.867376
  87  1      65.270568 23.734752 35.602128
  88  1      14.834220 41.535816 38.568972
  89  1      59.336880 41.535816 41.535816
  90  1      2.966844 2.966844 35.602128
  91  1      59.336880 38.568972 50.436348
  92  1      20.767908 26.701596 65.270568
  93  1      41.535816 14.834220 2.966844
  94  1      17.801064 65.270568 29.668440
  95  1      23.734752 50.436348 56.370036
  96  1      14.834220 29.668440 50.436348
  97  1      47.469504 14.834220 56.370036
  98  1      56.370036 23.734752 32.635284
  99  1      38.568972 26.701596 17.801064
 100  1      32.635284 62.303724 11.867376
 101  1      5.933688 2.966844 14.834220
 102  1      0.000000 14.834220 62.303724
 103  1      59.336880 50.436348 2.966844
 104  1      47.469504 17.801064 59.336880
 105  1      29.668440 62.303724 20.767908
 106  1      11.867376 5.933688 5.933688
 107  1      68.237412 38.568972 47.469504
 108  1      11.867376 38.568972 20.767908
 109  1      5.933688 50.436348 26.701596
 110  1      53.403192 2.966844 20.767908
 111  1      23.734752 8.900532 14.834220
 112  1      11.867376 53.403192 23.734752
 113  1      53.403192 14.834220 50.436348
 114  1      14.834220 0.000000 44.502660
 115  1      23.734752 14.834220 32.635284
 116  1      11.867376 20.767908 8.900532
 117  1      14.834220 5.933688 20.767908
 118  1      17.801064 26.701596 38.568972
 119  1      17.801064 35.602128 59.336880
 120  1      59.336880 68.237412 26.701596
 121  1      68.237412 2.966844 29.668440
 122  1      11.867376 17.801064 23.734752
 123  1      68.237412 29.668440 2.966844
 124  1      2.966844 29.668440 14.834220
 125  1      14.834220 50.436348 41.535816
 126  1      62.303724 68.237412 65.270568
 127  1      26.701596 8.900532 0.000000
 128  1      56.370036 8.900532 65.270568
 129  1      0.000000 38.568972 56.370036
 130  1      32.635284 23.734752 38.568972
 131  1      20.767908 0.000000 32.635284
 132  1      59.336880 20.767908 20.767908
 133  1      47.469504 44.502660 20.767908
 134  1      23.734752 8.900532 8.900532
 135  1      38.568972 50.436348 0.000000
 136  1      35.602128 56.370036 2.966844
 137  1      0.000000 11.867376 35.602128
 138  1      8.900532 41.535816 32.635284
 139  1      0.000000 68.237412 62.303724
 140  1      68.237412 20.767908 65.270568
 141  1      56.370036 11.867376 2.966844
 142  1      26.701596 8.900532 65.270568
 143  1      23.734752 35.602128 0.000000
 144  1      38.568972 11.867376 32.635284
 145  1      47.469504 35.602128 5.933688
 146  1      8.900532 23.734752 26.701596
 147  1      20.767908 53.403192 68.237412
 148  1      11.867376 5.933688 59.336880
 149  1      47.469504 23.734752 53.403192
 150  1      56.370036 29.668440 68.237412
 151  1      8.900532 17.801064 62.303724
 152  1      2.966844 44.502660 65.270568
 153  1      14.834220 17.801064 62.303724
 154  1      0.000000 20.767908 38.568972
 155  1      56.370036 29.668440 62.303724
 156  1      26.701596 41.535816 38.568972
 157  1      0.000000 23.734752 23.734752
 158  1      14.834220 20.767908 47.469504
 159  1      5.933688 8.900532 26.701596
 160  1      32.635284 8.900532 17.801064
 161  1      0.000000 56.370036 50.436348
 162  1      0.000000 59.336880 23.734752
 163  1      32.635284 41.535816 20.767908
 164  1      68.237412 50.436348 11.867376
 165  1      0.000000 0.000000 35.602128
 166  1      26.701596 23.734752 56.370036
 167  1      26.701596 29.668440 56.370036
 168  1      56.370036 14.834220 23.734752
 169  1      32.635284 11.867376 56.370036
 170  1      32.635284 8.900532 23.734752
 171  1      62.303724 38.568972 11.867376
 172  1      59.336880 26.701596 50.436348
 173  1      68.237412 32.635284 47.469504
 174  1      47.469504 11.867376 59.336880
 175  1      0.000000 26.701596 62.303724
 176  1      0.000000 26.701596 44.502660
 177  1      68.237412 62.303724 17.801064
 178  1      47.469504 53.403192 23.734752
 179  1      53.403192 8.900532 44.502660
 180  1      32.635284 56.370036 41.535816
 181  1      35.602128 35.602128 23.734752
 182  1      2.966844 56.370036 29.668440
 183  1      0.000000 56.370036 32.635284
 184  1      2.966844 44.502660 0.000000
 185  1      23.734752 53.403192 41.535816
 186  1      53.403192 44.502660 38.568972
 187  1      26.701596 65.270568 44.502660
 188  1      14.834220 20.767908 35.602128
 189  1      11.867376 32.635284 44.502660
 190  1      8.900532 62.303724 47.469504
 191  1      17.801064 14.834220 8.900532
 192  1      65.270568 11.867376 23.734752
 193  1      53.403192 65.270568 47.469504
 194  1      59.336880 29.668440 11.867376
 195  1      53.403192 68.237412 32.635284
 196  1      8.900532 26.701596 65.270568
 197  1      53.403192 17.801064 53.403192
 198  1      14.834220 44.502660 23.734752
 199  1      29.668440 11.867376 47.469504
 200  1      5.933688 65.270568 0.000000
 201  1      26.701596 41.535816 2.966844
 202  1      29.668440 56.370036 32.635284
 203  1      47.469504 62.303724 50.436348
 204  1      23.734752 35.602128 47.469504
 205  1      62.303724 20.767908 17.801064
 206  1      35.602128 29.668440 41.535816
 207  1      41.535816 44.502660 8.900532
 208  1      65.270568 8.900532 56.370036
 209  1      5.933688 35.602128 41.535816
 210  1      35.602128 44.502660 20.767908
 211  1      65.270568 17.801064 11.867376
 212  1      56.370036 56.370036 5.933688
 213  1      11.867376 41.535816 65.270568
 214  1      50.436348 56.370036 59.336880
 215  1      53.403192 2.966844 14.834220
 216  1      65.270568 50.436348 44.502660
 217  1      17.801064 23.734752 59.336880
 218  1      23.734752 50.436348 62.303724
 219  1      32.635284 50.436348 23.734752
 220  1      0.000000 29.668440 0.000000
 221  1      0.000000 26.701596 38.568972
 222  1      11.867376 0.000000 23.734752
 223  1      44.502660 35.602128 32.635284
 224  1      0.000000 8.900532 56.370036
 225  1      44.502660 68.237412 5.933688
 226  1      20.767908 17.801064 68.237412
 227  1      29.668440 32.635284 68.237412
 228  1      35.602128 20.767908 14.834220
 229  1      41.535816 26.701596 26.701596
 230  1      44.502660 17.801064 68.237412
 231  1      14.834220 26.701596 53.403192
 232  1      11.867376 59.336880 5.933688
 233  1      20.767908 47.469504 38.568972
 234  1      11.867376 41.535816 0.000000
 235  1      65.270568 32.635284 62.303724
 236  1      35.602128 29.668440 59.336880
 237  1      23.734752 68.237412 56.370036
 238  1      2.966844 17.801064 32.635284
 239  1      59.336880 0.000000 0.000000
 240  1      32.635284 2.966844 29.668440
 241  1      17.801064 29.668440 47.469504
 242  1      41.535816 35.602128 53.403192
 243  1      56.370036 41.535816 56.370036
 244  1      50.436348 20.767908 5.933688
 245  1      11.867376 8.900532 56.370036
 246  1      14.834220 59.336880 14.834220
 247  1      23.734752 0.000000 0.000000
 248  1      44.502660 20.767908 0.000000
 249  1      26.701596 2.966844 11.867376
 250  1      17.801064 5.933688 0.000000
 251  1      44.502660 44.502660 11.867376
 252  1      44.502660 5.933688 68.237412
 253  1      65.270568 62.303724 62.303724
 254  1      20.767908 59.336880 2.966844
 255  1      65.270568 14.834220 44.502660
 256  1      44.502660 0.000000 2.966844
 257  1      50.436348 0.000000 20.767908
 258  1      5.933688 32.635284 32.635284
 259  1      26.701596 29.668440 26.701596
 260  1      29.668440 2.966844 32.635284
 261  1      65.270568 38.568972 38.568972
 262  1      35.602128 41.535816 65.270568
 263  1      2.966844 59.336880 20.767908
 264  1      44.502660 53.403192 2.966844
 265  1      59.336880 32.635284 68.237412
 266  1      23.734752 56.370036 20.767908
 267  1      35.602128 32.635284 14.834220
 268  1      5.933688 53.403192 23.734752
 269  1      26.701596 2.966844 53.403192
 270  1      23.734752 53.403192 5.933688
 271  1      50.436348 68.237412 59.336880
 272  1      29.668440 44.502660 8.900532
 273  1      26.701596 11.867376 56.370036
 274  1      2.966844 38.568972 11.867376
 275  1      59.336880 0.000000 65.270568
 276  1      32.635284 29.668440 50.436348
 277  1      14.834220 0.000000 56.370036
 278  1      17.801064 20.767908 68.237412
 279  1      20.767908 59.336880 8.900532
 280  1      8.900532 65.270568 68.237412
 281  1      44.502660 68.237412 59.336880
 282  1      50.436348 17.801064 56.370036
 283  1      56.370036 41.535816 26.701596
 284  1      5.933688 47.469504 11.867376
 285  1      62.303724 8.900532 47.469504
 286  1      14.834220 29.668440 26.701596
 287  1      23.734752 8.900532 68.237412
 288  1      35.602128 44.502660 26.701596
 289  1      17.801064 17.801064 29.668440
 290  1      35.602128 11.867376 59.336880
 291  1      26.701596 47.469504 20.767908
 292  1      8.900532 29.668440 56.370036
 293  1      47.469504 11.867376 53.403192
 294  1      41.535816 38.568972 14.834220
 295  1      29.668440 17.801064 35.602128
 296  1      50.436348 23.734752 44.502660
 297  1      17.801064 17.801064 0.000000
 298  1      29.668440 62.303724 38.568972
 299  1      20.767908 38.568972 59.336880
 300  1      59.336880 2.966844 68.237412
 301  1      29.668440 14.834220 62.303724
 302  1      8.900532 59.336880 38.568972
 303  1      59.336880 65.270568 17.801064
 304  1      26.701596 23.734752 20.767908
 305  1      38.568972 8.900532 5.933688
 306  1      8.900532 26.701596 53.403192
 307  1      53.403192 8.900532 62.303724
 308  1      20.767908 68.237412 65.270568
 309  1      53.403192 47.469504 47.469504
 310  1      2.966844 29.668440 44.502660
 311  1      5.933688 29.668440 23.734752
 312  1      32.635284 35.602128 62.303724
 313  1      20.767908 5.933688 38.568972
 314  1      44.502660 5.933688 8.900532
 315  1      5.933688 23.734752 23.734752
 316  1      59.336880 38.568972 68.237412
 317  1      5.933688 47.469504 17.801064
 318  1      59.336880 14.834220 26.701596
 319  1      53.403192 41.535816 29.668440
 320  1      44.502660 35.602128 44.502660
 321  1      8.900532 0.000000 44.502660
 322  1      20.767908 20.767908 53.403192
 323  1      35.602128 23.734752 65.270568
 324  1      32.635284 2.966844 41.535816
 325  1      35.602128 32.635284 50.436348
 326  1      47.469504 0.000000 5.933688
 327  1      41.535816 62.303724 44.502660
 328  1      68.237412 47.469504 56.370036
 329  1      17.801064 35.602128 5.933688
 330  1      0.000000 56.370036 14.834220
 331  1      62.303724 29.668440 14.834220
 332  1      20.767908 2.966844 35.602128
 333  1      2.966844 41.535816 38.568972
 334  1      5.933688 23.734752 0.000000
 335  1      47.469504 62.303724 14.834220
 336  1      20.767908 11.867376 14.834220
 337  1      56.370036 0.000000 32.635284
 338  1      11.867376 50.436348 20.767908
 339  1      8.900532 65.270568 14.834220
 340  1      65.270568 0.000000 0.000000
 341  1      8.900532 0.000000 32.635284
 342  1      44.502660 5.933688 44.502660
 343  1      8.900532 17.801064 14.834220
 344  1      59.336880 8.900532 44.502660
 345  1      2.966844 11.867376 32.635284
 346  1      35.602128 38.568972 68.237412
 347  1      53.403192 35.602128 5.933688
 348  1      32.635284 35.602128 38.568972
 349  1      59.336880 62.303724 38.568972
 350  1      0.000000 47.469504 59.336880
 351  1      23.734752 26.701596 44.502660
 352  1      41.535816 23.734752 35.602128
 353  1      0.000000 0.000000 65.270568
 354  1      32.635284 23.734752 2.966844
 355  1      32.635284 32.635284 65.270568
 356  1      59.336880 56.370036 14.834220
 357  1      17.801064 0.000000 23.734752
 358  1      47.469504 8.900532 56.370036
 359  1      47.469504 41.535816 35.602128
 360  1      17.801064 2.966844 20.767908
 361  1      17.801064 0.000000 5.933688
 362  1      23.734752 44.502660 20.767908
 363  1      35.602128 44.502660 44.502660
 364  1      41.535816 8.900532 32.635284
 365  1      41.535816 65.270568 0.000000
 366  1      32.635284 59.336880 68.237412
 367  1      17.801064 62.303724 20.767908
 368  1      35.602128 50.436348 32.635284
 369  1      11.867376 47.469504 47.469504
 370  1      5.933688 62.303724 44.502660
 371  1      65.270568 20.767908 26.701596
 372  1      5.933688 56.370036 8.900532
 373  1      62.303724 5.933688 50.436348
 374  1      26.701596 47.469504 62.303724
 375  1      50.436348 14.834220 59.336880
 376  1      65.270568 53.403192 11.867376
 377  1      23.734752 65.270568 35.602128
 378  1      53.403192 14.834220 20.767908
 379  1      11.867376 26.701596 26.701596
 380  1      8.900532 38.568972 23.734752
 381  1      17.801064 23.734752 5.933688
 382  1      41.535816 44.502660 56.370036
 383  1      68.237412 65.270568 50.436348
 384  1      44.502660 38.568972 11.867376
 385  1      14.834220 20.767908 53.403192
 386  1      2.966844 32.635284 65.270568
 387  1      68.237412 14.834220 29.668440
 388  1      32.635284 56.370036 11.867376
 389  1      35.602128 2.966844 20.767908
 390  1      44.502660 65.270568 56.370036
 391  1      35.602128 11.867376 53.403192
 392  1      50.436348 14.834220 17.801064
 393  1      11.867376 68.237412 62.303724
 394  1      53.403192 44.502660 44.502660
 395  1      11.867376 65.270568 5.933688
 396  1      53.403192 32.635284 68.237412
 397  1      47.469504 26.701596 50.436348
 398  1      44.502660 53.403192 20.767908
 399  1      44.502660 59.336880 2.966844
 400  1      56.370036 14.834220 17.801064
 401  1      59.336880 8.900532 32.635284
 402  1      35.602128 26.701596 2.966844
 403  1      38.568972 68.237412 41.535816
 404  1      35.602128 65.270568 53.403192
 405  1      47.469504 32.635284 8.900532
 406  1      47.469504 17.801064 47.469504
 407  1      41.535816 65.270568 35.602128
 408  1      47.469504 38.568972 20.767908
 409  1      20.767908 41.535816 8.900532
 410  1      47.469504 5.933688 53.403192
 411  1      56.370036 35.602128 56.370036
 412  1      56.370036 5.933688 50.436348
 413  1      62.303724 23.734752 38.568972
 414  1      38.568972 38.568972 29.668440
 415  1      68.237412 53.403192 68.237412
 416  1      50.436348 17.801064 14.834220
 417  1      0.000000 62.303724 26.701596
 418  1      23.734752 5.933688 65.270568
 419  1      26.701596 2.966844 35.602128
 420  1      26.701596 44.502660 5.933688
 421  1      17.801064 17.801064 53.403192
 422  1      44.502660 32.635284 11.867376
 423  1      0.000000 41.535816 59.336880
 424  1      53.403192 53.403192 11.867376
 425  1      38.568972 65.270568 32.635284
 426  1      65.270568 65.270568 0.000000
 427  1      17.801064 56.370036 56.370036
 428  1      2.966844 32.635284 59.336880
 429  1      65.270568 26.701596 56.370036
 430  1      56.370036 5.933688 2.966844
 431  1      38.568972 5.933688 68.237412
 432  1      62.303724 38.568972 53.403192
 433  1      56.370036 35.602128 68.237412
 434  1      0.000000 62.303724 14.834220
 435  1      29.668440 11.867376 5.933688
 436  1      65.270568 23.734752 17.801064
 437  1      14.834220 26.701596 35.602128
 438  1      56.370036 41.535816 32.635284
 439  1      65.270568 35.602128 53.403192
 440  1      53.403192 35.602128 11.867376
 441  1      0.000000 47.469504 29.668440
 442  1      20.767908 29.668440 14.834220
 443  1      20.767908 68.237412 23.734752
 444  1      23.734752 65.270568 17.801064
 445  1      5.933688 0.000000 29.668440
 446  1      0.000000 38.568972 2.966844
 447  1      14.834220 8.900532 11.867376
 448  1      44.502660 65.270568 44.502660
 449  1      14.834220 38.568972 59.336880
 450  1      65.270568 26.701596 68.237412
 451  1      29.668440 11.867376 65.270568
 452  1      41.535816 44.502660 14.834220
 453  1      8.900532 59.336880 62.303724
 454  1      59.336880 32.635284 62.303724
 455  1      47.469504 59.336880 41.535816
 456  1      29.668440 14.834220 2.966844
 457  1      32.635284 32.635284 41.535816
 458  1      59.336880 65.270568 59.336880
 459  1      38.568972 17.801064 26.701596
 460  1      20.767908 68.237412 35.602128
 461  1      32.635284 5.933688 50.436348
 462  1      26.701596 35.602128 62.303724
 463  1      65.270568 20.767908 14.834220
 464  1      17.801064 17.801064 41.535816
 465  1      29.668440 8.900532 50.436348
 466  1      11.867376 32.635284 38.568972
 467  1      14.834220 59.336880 38.568972
 468  1      41.535816 23.734752 29.668440
 469  1      53.403192 32.635284 62.303724
 470  1      68.237412 0.000000 32.635284
 471  1      17.801064 50.436348 8.900532
 472  1      23.734752 62.303724 2.966844
 473  1      65.270568 65.270568 53.403192
 474  1      14.834220 32.635284 5.933688
 475  1      35.602128 0.000000 47.469504
 476  1      56.370036 35.602128 2.966844
 477  1      26.701596 32.635284 35.602128
 478  1      44.502660 32.635284 29.668440
 479  1      41.535816 50.436348 2.966844
 480  1      47.469504 56.370036 68.237412
 481  1      14.834220 8.900532 5.933688
 482  1      68.237412 23.734752 8.900532
 483  1      38.568972 59.336880 38.568972
 484  1      44.502660 0.000000 26.701596
 485  1      20.767908 2.966844 65.270568
 486  1      8.900532 44.502660 65.270568
 487  1      14.834220 65.270568 38.568972
 488  1      23.734752 29.668440 35.602128
 489  1      56.370036 56.370036 47.469504
 490  1      47.469504 0.000000 41.535816
 491  1      47.469504 65.270568 35.602128
 492  1      68.237412 62.303724 53.403192
 493  1      29.668440 11.867376 23.734752
 494  1      20.767908 56.370036 5.933688
 495  1      47.469504 2.966844 8.900532
 496  1      44.502660 50.436348 11.867376
 497  1      41.535816 32.635284 32.635284
 498  1      11.867376 14.834220 68.237412
 499  1      62.303724 47.469504 14.834220
 500  1      38.568972 56.370036 0.000000
 501  1      59.336880 62.303724 14.834220
 502  1      5.933688 62.303724 2.966844
 503  1      56.370036 68.237412 47.469504
 504  1      17.801064 8.900532 56.370036
 505  1      62.303724 47.469504 68.237412
 506  1      65.270568 5.933688 35.602128
 507  1      44.502660 35.602128 56.370036
 508  1      62.303724 32.635284 53.403192
 509  1      11.867376 59.336880 53.403192
 510  1      56.370036 50.436348 65.270568
 511  1      35.602128 23.734752 47.469504
 512  1      2.966844 11.867376 2.966844
 513  1      56.370036 20.767908 59.336880
 514  1      2.966844 26.701596 65.270568
 515  1      41.535816 20.767908 50.436348
 516  1      44.502660 59.336880 68.237412
 517  1      8.900532 59.336880 8.900532
 518  1      20.767908 0.000000 8.900532
 519  1      20.767908 5.933688 50.436348
 520  1      53.403192 59.336880 59.336880
 521  1      23.734752 50.436348 2.966844
 522  1      26.701596 65.270568 38.568972
 523  1      5.933688 32.635284 68.237412
 524  1      56.370036 50.436348 47.469504
 525  1      38.568972 68.237412 35.602128
 526  1      35.602128 17.801064 0.000000
 527  1      8.900532 0.000000 50.436348
 528  1      59.336880 50.436348 38.568972
 529  1      62.303724 56.370036 65.270568
 530  1      17.801064 11.867376 47.469504
 531  1      14.834220 53.403192 2.966844
 532  1      68.237412 17.801064 2.966844
 533  1      65.270568 0.000000 47.469504
 534  1      32.635284 8.900532 0.000000
 535  1      2.966844 35.602128 50.436348
 536  1      59.336880 32.635284 14.834220
 537  1      62.303724 29.668440 44.502660
 538  1      29.668440 41.535816 47.469504
 539  1      0.000000 8.900532 62.303724
 540  1      35.602128 53.403192 0.000000
 541  1      68.237412 50.436348 29.668440
 542  1      47.469504 56.370036 62.303724
 543  1      17.801064 56.370036 20.767908
 544  1      44.502660 29.668440 32.635284
 545  1      20.767908 50.436348 41.535816
 546  1      5.933688 26.701596 26.701596
 547  1      11.867376 50.436348 32.635284
 548  1      5.933688 35.602128 5.933688
 549  1      5.933688 8.900532 62.303724
 550  1      53.403192 53.403192 53.403192
 551  1      20.767908 29.668440 2.966844
 552  1      44.502660 17.801064 38.568972
 553  1      29.668440 38.568972 26.701596
 554  1      8.900532 5.933688 68.237412
 555  1      62.303724 65.270568 8.900532
 556  1      17.801064 38.568972 20.767908
 557  1      68.237412 5.933688 68.237412
 558  1      59.336880 14.834220 68.237412
 559  1      32.635284 68.237412 35.602128
 560  1      14.834220 59.336880 8.900532
 561  1      26.701596 20.767908 5.933688
 562  1      65.270568 2.966844 56.370036
 563  1      11.867376 23.734752 23.734752
 564  1      26.701596 26.701596 59.336880
 565  1      38.568972 47.469504 62.303724
 566  1      68.237412 29.668440 68.237412
 567  1      56.370036 8.900532 11.867376
 568  1      44.502660 68.237412 41.535816
 569  1      53.403192 65.270568 17.801064
 570  1      59.336880 8.900532 50.436348
 571  1      50.436348 23.734752 2.966844
 572  1      0.000000 17.801064 65.270568
 573  1      53.403192 8.900532 68.237412
 574  1      41.535816 59.336880 11.867376
 575  1      56.370036 38.568972 59.336880
 576  1      32.635284 26.701596 11.867376
 577  1      35.602128 11.867376 17.801064
 578  1      41.535816 2.966844 14.834220
 579  1      14.834220 53.403192 14.834220
 580  1      35.602128 38.568972 2.966844
 581  1      23.734752 20.767908 32.635284
 582  1      59.336880 38.568972 62.303724
 583  1      35.602128 17.801064 47.469504
 584  1      38.568972 23.734752 56.370036
 585  1      5.933688 50.436348 32.635284
 586  1      65.270568 35.602128 17.801064
 587  1      35.602128 11.867376 29.668440
 588  1      0.000000 41.535816 17.801064
 589  1      50.436348 8.900532 35.602128
 590  1      68.237412 41.535816 20.767908
 591  1      26.701596 68.237412 65.270568
 592  1      11.867376 29.668440 47.469504
 593  1      32.635284 0.000000 68.237412
 594  1      41.535816 0.000000 65.270568
 595  1      47.469504 56.370036 44.502660
 596  1      2.966844 2.966844 29.668440
 597  1      32.635284 14.834220 35.602128
 598  1      26.701596 38.568972 53.403192
 599  1      20.767908 47.469504 68.237412
 600  1      50.436348 68.237412 53.403192
 601  1      47.469504 44.502660 8.900532
 602  1      26.701596 0.000000 26.701596
 603  1      65.270568 38.568972 8.900532
 604  1      53.403192 8.900532 26.701596
 605  1      5.933688 23.734752 17.801064
 606  1      17.801064 8.900532 68.237412
 607  1      14.834220 47.469504 50.436348
 608  1      29.668440 0.000000 35.602128
 609  1      20.767908 41.535816 26.701596
 610  1      38.568972 65.270568 20.767908
 611  1      41.535816 59.336880 17.801064
 612  1      29.668440 5.933688 29.668440
 613  1      41.535816 14.834220 68.237412
 614  1      0.000000 41.535816 65.270568
 615  1      38.568972 23.734752 32.635284
 616  1      2.966844 2.966844 41.535816
 617  1      5.933688 29.668440 59.336880
 618  1      29.668440 29.668440 65.270568
 619  1      53.403192 44.502660 50.436348
 620  1      2.966844 59.336880 8.900532
 621  1      20.767908 5.933688 26.701596
 622  1      44.502660 44.502660 41.535816
 623  1      17.801064 53.403192 41.535816
 624  1      38.568972 29.668440 14.834220
 625  1      17.801064 50.436348 38.568972
 626  1      50.436348 29.668440 50.436348
 627  1      17.801064 59.336880 0.000000
 628  1      47.469504 41.535816 29.668440
 629  1      53.403192 56.370036 50.436348
 630  1      14.834220 17.801064 44.502660
 631  1      68.237412 38.568972 5.933688
 632  1      35.602128 44.502660 38.568972
 633  1      2.966844 47.469504 20.767908
 634  1      38.568972 53.403192 32.635284
 635  1      23.734752 29.668440 11.867376
 636  1      50.436348 44.502660 35.602128
 637  1      14.834220 20.767908 41.535816
 638  1      50.436348 65.270568 44.502660
 639  1      56.370036 32.635284 0.000000
 640  1      26.701596 53.403192 68.237412
 641  1      29.668440 35.602128 11.867376
 642  1      2.966844 5.933688 8.900532
 643  1      59.336880 23.734752 11.867376
 644  1      35.602128 38.568972 20.767908
 645  1      17.801064 41.535816 17.801064
 646  1      23.734752 35.602128 29.668440
 647  1      8.900532 41.535816 62.303724
 648  1      50.436348 11.867376 38.568972
 649  1      0.000000 32.635284 2.966844
 650  1      47.469504 14.834220 38.568972
 651  1      23.734752 65.270568 11.867376
 652  1      2.966844 68.237412 53.403192
 653  1      56.370036 20.767908 41.535816
 654  1      8.900532 65.270568 8.900532
 655  1      5.933688 38.568972 56.370036
 656  1      62.303724 8.900532 0.000000
 657  1      47.469504 41.535816 53.403192
 658  1      35.602128 35.602128 41.535816
 659  1      56.370036 56.370036 35.602128
 660  1      59.336880 35.602128 47.469504
 661  1      17.801064 47.469504 59.336880
 662  1      0.000000 14.834220 38.568972
 663  1      29.668440 50.436348 32.635284
 664  1      65.270568 17.801064 53.403192
 665  1      56.370036 20.767908 11.867376
 666  1      41.535816 32.635284 20.767908
 667  1      17.801064 23.734752 41.535816
 668  1      26.701596 17.801064 38.568972
 669  1      56.370036 23.734752 56.370036
 670  1      0.000000 23.734752 35.602128
 671  1      35.602128 56.370036 68.237412
 672  1      38.568972 35.602128 50.436348
 673  1      23.734752 68.237412 26.701596
 674  1      14.834220 68.237412 65.270568
 675  1      17.801064 20.767908 26.701596
 676  1      38.568972 32.635284 59.336880
 677  1      17.801064 65.270568 35.602128
 678  1      5.933688 50.436348 20.767908
 679  1      56.370036 47.469504 26.701596
 680  1      29.668440 56.370036 20.767908
 681  1      68.237412 32.635284 53.403192
 682  1      23.734752 8.900532 32.635284
 683  1      2.966844 53.403192 44.502660
 684  1      23.734752 8.900532 50.436348
 685  1      47.469504 23.734752 41.535816
 686  1      5.933688 32.635284 2.966844
 687  1      14.834220 35.602128 56.370036
 688  1      0.000000 65.270568 11.867376
 689  1      2.966844 62.303724 29.668440
 690  1      35.602128 32.635284 32.635284
 691  1      29.668440 32.635284 8.900532
 692  1      53.403192 32.635284 44.502660
 693  1      11.867376 44.502660 26.701596
 694  1      23.734752 62.303724 68.237412
 695  1      29.668440 59.336880 29.668440
 696  1      56.370036 20.767908 17.801064
 697  1      26.701596 44.502660 11.867376
 698  1      38.568972 0.000000 2.966844
 699  1      47.469504 17.801064 35.602128
 700  1      20.767908 5.933688 32.635284