# Converted from POSCAR to lammps format

18000 atoms
3 atom types

0.000000   84.678522   xlo xhi
0.000000   73.333751   ylo yhi
0.000000   84.105342   zlo zhi

 42.339261    0.000000    0.000000   xy xz yz

Atoms

   1  1      63.508892 56.222543 52.163348
   2  1      25.403557 14.666750 61.921263
   3  1      61.391929 67.222605 68.984417
   4  1      33.871409 56.222543 52.163348
   5  1      4.233926 7.333375 61.921263
   6  1      57.158002 28.111271 65.584131
   7  1      95.263337 64.778147 31.941994
   8  1      71.976744 26.889042 18.521211
   9  1      74.093707 30.555730 52.163348
  10  1      48.690150 1.222229 18.521211
  11  1      65.625855 13.444521 31.941994
  12  1      105.848153 68.444835 65.584131
  13  1      88.912448 61.111459 82.405200
  14  1      38.105335 26.889042 18.521211
  15  1      93.146374 53.778084 65.584131
  16  1      27.520520 33.000188 72.647284
  17  1      23.286594 6.111146 82.405200
  18  1      99.497264 35.444646 15.120926
  19  1      38.105335 46.444709 65.584131
  20  1      78.327633 1.222229 35.342280
  21  1      48.690150 59.889230 18.521211
  22  1      29.637483 14.666750 45.100195
  23  1      65.625855 62.333689 78.742332
  24  1      95.263337 35.444646 65.584131
  25  1      27.520520 47.666938 78.742332
  26  1      23.286594 30.555730 68.984417
  27  1      88.912448 53.778084 48.763063
  28  1      6.350889 11.000063 28.279126
  29  1      52.924076 40.333563 28.279126
  30  1      103.731190 67.222605 52.163348
  31  1      25.403557 12.222292 68.984417
  32  1      67.742818 36.666876 39.005147
  33  1      80.444596 53.778084 31.941994
  34  1      103.731190 50.111397 82.405200
  35  1      101.614227 36.666876 11.458058
  36  1      2.116963 1.222229 1.700143
  37  1      50.807113 29.333501 5.363010
  38  1      23.286594 25.666813 45.100195
  39  1      8.467852 9.777834 82.405200
  40  1      50.807113 29.333501 11.458058
  41  1      38.105335 31.777959 65.584131
  42  1      86.795485 42.778022 65.584131
  43  1      6.350889 3.666688 11.458058
  44  1      112.199042 50.111397 31.941994
  45  1      55.041039 36.666876 55.826216
  46  1      40.222298 69.667064 22.184079
  47  1      46.573187 7.333375 5.363010
  48  1      65.625855 11.000063 61.921263
  49  1      74.093707 69.667064 61.921263
  50  1      38.105335 29.333501 39.005147
  51  1      103.731190 62.333689 22.184079
  52  1      25.403557 7.333375 55.826216
  53  1      76.210670 53.778084 65.584131
  54  1      76.210670 51.333626 11.458058
  55  1      63.508892 24.444584 31.941994
  56  1      14.818741 25.666813 39.005147
  57  1      31.754446 50.111397 31.941994
  58  1      63.508892 9.777834 31.941994
  59  1      44.456224 50.111397 31.941994
  60  1      44.456224 59.889230 1.700143
  61  1      40.222298 13.444521 48.763063
  62  1      4.233926 0.000000 28.279126
  63  1      42.339261 24.444584 31.941994
  64  1      38.105335 22.000125 5.363010
  65  1      16.935704 0.000000 45.100195
  66  1      40.222298 28.111271 65.584131
  67  1      69.859781 37.889105 35.342280
  68  1      12.701778 22.000125 22.184079
  69  1      101.614227 51.333626 11.458058
  70  1      35.988372 6.111146 82.405200
  71  1      55.041039 29.333501 61.921263
  72  1      103.731190 52.555855 1.700143
  73  1      69.859781 72.111522 31.941994
  74  1      14.818741 8.555604 1.700143
  75  1      91.029411 40.333563 72.647284
  76  1      93.146374 29.333501 39.005147
  77  1      29.637483 22.000125 55.826216
  78  1      52.924076 62.333689 39.005147
  79  1      48.690150 11.000063 61.921263
  80  1      38.105335 9.777834 65.584131
  81  1      82.561559 35.444646 31.941994
  82  1      82.561559 72.111522 15.120926
  83  1      61.391929 59.889230 18.521211
  84  1      93.146374 46.444709 15.120926
  85  1      52.924076 13.444521 82.405200
  86  1      69.859781 6.111146 15.120926
  87  1      82.561559 13.444521 82.405200
  88  1      82.561559 35.444646 65.584131
  89  1      67.742818 9.777834 65.584131
  90  1      57.158002 72.111522 48.763063
  91  1      44.456224 45.222480 18.521211
  92  1      110.082079 61.111459 15.120926
  93  1      82.561559 33.000188 28.279126
  94  1      97.380300 56.222543 52.163348
  95  1      16.935704 14.666750 5.363010
  96  1      103.731190 37.889105 35.342280
  97  1      67.742818 51.333626 5.363010
  98  1      74.093707 33.000188 11.458058
  99  1      4.233926 0.000000 5.363010
 100  1      14.818741 1.222229 52.163348
 101  1      35.988372 55.000314 61.921263
 102  1      86.795485 15.888979 68.984417
 103  1      95.263337 40.333563 72.647284
 104  1      48.690150 18.333438 11.458058
 105  1      95.263337 33.000188 11.458058
 106  1      67.742818 61.111459 15.120926
 107  1      86.795485 25.666813 22.184079
 108  1      63.508892 22.000125 72.647284
 109  1      44.456224 37.889105 52.163348
 110  1      71.976744 36.666876 55.826216
 111  1      84.678522 36.666876 45.100195
 112  1      23.286594 28.111271 31.941994
 113  1      88.912448 44.000251 28.279126
 114  1      88.912448 41.555792 68.984417
 115  1      48.690150 3.666688 5.363010
 116  1      35.988372 57.444772 65.584131
 117  1      120.666894 72.111522 82.405200
 118  1      101.614227 34.222417 68.984417
 119  1      10.584815 11.000063 11.458058
 120  1      76.210670 51.333626 78.742332
 121  1      74.093707 20.777896 82.405200
 122  1      95.263337 45.222480 68.984417
 123  1      97.380300 58.667001 78.742332
 124  1      82.561559 33.000188 22.184079
 125  1      91.029411 18.333438 61.921263
 126  1      59.274966 44.000251 39.005147
 127  1      95.263337 62.333689 28.279126
 128  1      84.678522 70.889293 52.163348
 129  1      55.041039 24.444584 15.120926
 130  1      116.432968 62.333689 22.184079
 131  1      71.976744 61.111459 48.763063
 132  1      88.912448 56.222543 52.163348
 133  1      44.456224 3.666688 61.921263
 134  1      40.222298 6.111146 15.120926
 135  1      84.678522 14.666750 61.921263
 136  1      95.263337 37.889105 68.984417
 137  1      19.052667 1.222229 68.984417
 138  1      78.327633 23.222355 18.521211
 139  1      42.339261 29.333501 61.921263
 140  1      71.976744 31.777959 31.941994
 141  1      91.029411 59.889230 18.521211
 142  1      95.263337 69.667064 22.184079
 143  1      55.041039 26.889042 18.521211
 144  1      65.625855 45.222480 1.700143
 145  1      78.327633 62.333689 78.742332
 146  1      80.444596 31.777959 15.120926
 147  1      67.742818 51.333626 39.005147
 148  1      71.976744 4.888917 18.521211
 149  1      71.976744 46.444709 65.584131
 150  1      42.339261 31.777959 31.941994
 151  1      69.859781 13.444521 31.941994
 152  1      44.456224 18.333438 28.279126
 153  1      6.350889 11.000063 11.458058
 154  1      80.444596 41.555792 1.700143
 155  1      42.339261 61.111459 31.941994
 156  1      88.912448 36.666876 22.184079
 157  1      61.391929 20.777896 82.405200
 158  1      57.158002 3.666688 39.005147
 159  1      80.444596 36.666876 22.184079
 160  1      25.403557 7.333375 22.184079
 161  1      95.263337 57.444772 15.120926
 162  1      69.859781 18.333438 45.100195
 163  1      78.327633 28.111271 15.120926
 164  1      110.082079 61.111459 82.405200
 165  1      78.327633 37.889105 52.163348
 166  1      40.222298 11.000063 22.184079
 167  1      80.444596 24.444584 82.405200
 168  1      38.105335 53.778084 82.405200
 169  1      67.742818 56.222543 18.521211
 170  1      44.456224 35.444646 82.405200
 171  1      93.146374 51.333626 55.826216
 172  1      50.807113 53.778084 15.120926
 173  1      93.146374 63.555918 35.342280
 174  1      78.327633 57.444772 15.120926
 175  1      46.573187 14.666750 55.826216
 176  1      50.807113 68.444835 31.941994
 177  1      48.690150 57.444772 82.405200
 178  1      74.093707 28.111271 15.120926
 179  1      40.222298 64.778147 82.405200
 180  1      78.327633 25.666813 61.921263
 181  1      35.988372 57.444772 15.120926
 182  1      91.029411 57.444772 15.120926
 183  1      91.029411 33.000188 72.647284
 184  1      19.052667 15.888979 35.342280
 185  1      82.561559 28.111271 82.405200
 186  1      91.029411 50.111397 48.763063
 187  1      97.380300 68.444835 15.120926
 188  1      38.105335 12.222292 52.163348
 189  1      69.859781 13.444521 15.120926
 190  1      95.263337 30.555730 18.521211
 191  1      57.158002 59.889230 52.163348
 192  1      97.380300 34.222417 52.163348
 193  1      50.807113 19.555667 52.163348
 194  1      19.052667 33.000188 78.742332
 195  1      23.286594 33.000188 11.458058
 196  1      52.924076 50.111397 15.120926
 197  1      65.625855 62.333689 39.005147
 198  1      91.029411 40.333563 5.363010
 199  1      71.976744 22.000125 5.363010
 200  1      35.988372 8.555604 68.984417
 201  1      29.637483 2.444458 65.584131
 202  1      91.029411 15.888979 52.163348
 203  1      67.742818 7.333375 45.100195
 204  1      35.988372 55.000314 28.279126
 205  1      52.924076 62.333689 55.826216
 206  1      29.637483 12.222292 68.984417
 207  1      38.105335 58.667001 39.005147
 208  1      74.093707 11.000063 78.742332
 209  1      33.871409 58.667001 55.826216
 210  1      59.274966 44.000251 22.184079
 211  1      57.158002 37.889105 18.521211
 212  1      71.976744 36.666876 22.184079
 213  1      42.339261 36.666876 61.921263
 214  1      19.052667 11.000063 45.100195
 215  1      80.444596 56.222543 68.984417
 216  1      10.584815 3.666688 11.458058
 217  1      74.093707 23.222355 68.984417
 218  1      93.146374 44.000251 45.100195
 219  1      40.222298 25.666813 72.647284
 220  1      61.391929 11.000063 22.184079
 221  1      65.625855 28.111271 31.941994
 222  1      33.871409 44.000251 39.005147
 223  1      57.158002 67.222605 1.700143
 224  1      35.988372 30.555730 18.521211
 225  1      84.678522 17.111209 31.941994
 226  1      33.871409 46.444709 65.584131
 227  1      52.924076 64.778147 31.941994
 228  1      31.754446 15.888979 1.700143
 229  1      38.105335 44.000251 72.647284
 230  1      55.041039 24.444584 31.941994
 231  1      29.637483 41.555792 1.700143
 232  1      120.666894 64.778147 15.120926
 233  1      38.105335 51.333626 55.826216
 234  1      27.520520 3.666688 45.100195
 235  1      105.848153 58.667001 28.279126
 236  1      78.327633 55.000314 39.005147
 237  1      105.848153 58.667001 55.826216
 238  1      21.169631 0.000000 22.184079
 239  1      61.391929 69.667064 28.279126
 240  1      21.169631 2.444458 31.941994
 241  1      44.456224 23.222355 18.521211
 242  1      82.561559 45.222480 1.700143
 243  1      33.871409 48.889168 18.521211
 244  1      99.497264 33.000188 61.921263
 245  1      8.467852 0.000000 45.100195
 246  1      50.807113 31.777959 48.763063
 247  1      71.976744 17.111209 82.405200
 248  1      95.263337 72.111522 31.941994
 249  1      84.678522 44.000251 78.742332
 250  1      27.520520 47.666938 5.363010
 251  1      59.274966 44.000251 45.100195
 252  1      59.274966 51.333626 78.742332
 253  1      61.391929 35.444646 15.120926
 254  1      76.210670 4.888917 18.521211
 255  1      25.403557 22.000125 61.921263
 256  1      61.391929 25.666813 22.184079
 257  1      86.795485 62.333689 55.826216
 258  1      74.093707 40.333563 22.184079
 259  1      78.327633 62.333689 61.921263
 260  1      52.924076 33.000188 45.100195
 261  1      59.274966 26.889042 68.984417
 262  1      95.263337 64.778147 82.405200
 263  1      91.029411 40.333563 22.184079
 264  1      61.391929 67.222605 52.163348
 265  1      78.327633 3.666688 28.279126
 266  1      88.912448 14.666750 78.742332
 267  1      42.339261 66.000376 55.826216
 268  1      99.497264 33.000188 72.647284
 269  1      86.795485 20.777896 48.763063
 270  1      14.818741 18.333438 11.458058
 271  1      48.690150 15.888979 52.163348
 272  1      78.327633 62.333689 55.826216
 273  1      78.327633 28.111271 48.763063
 274  1      112.199042 62.333689 5.363010
 275  1      107.965116 72.111522 31.941994
 276  1      38.105335 31.777959 82.405200
 277  1      82.561559 55.000314 5.363010
 278  1      88.912448 17.111209 31.941994
 279  1      63.508892 70.889293 35.342280
 280  1      71.976744 36.666876 39.005147
 281  1      74.093707 20.777896 48.763063
 282  1      31.754446 25.666813 78.742332
 283  1      55.041039 41.555792 52.163348
 284  1      33.871409 7.333375 5.363010
 285  1      40.222298 42.778022 82.405200
 286  1      67.742818 66.000376 78.742332
 287  1      27.520520 23.222355 35.342280
 288  1      63.508892 7.333375 61.921263
 289  1      33.871409 9.777834 65.584131
 290  1      46.573187 7.333375 45.100195
 291  1      55.041039 24.444584 82.405200
 292  1      38.105335 46.444709 48.763063
 293  1      50.807113 44.000251 11.458058
 294  1      52.924076 42.778022 65.584131
 295  1      86.795485 15.888979 52.163348
 296  1      21.169631 0.000000 45.100195
 297  1      44.456224 35.444646 31.941994
 298  1      86.795485 33.000188 11.458058
 299  1      40.222298 62.333689 61.921263
 300  1      80.444596 39.111334 82.405200
 301  1      65.625855 57.444772 65.584131
 302  1      99.497264 52.555855 18.521211
 303  1      114.316005 53.778084 65.584131
 304  1      82.561559 20.777896 15.120926
 305  1      97.380300 24.444584 65.584131
 306  1      69.859781 37.889105 1.700143
 307  1      69.859781 23.222355 68.984417
 308  1      103.731190 62.333689 39.005147
 309  1      86.795485 23.222355 52.163348
 310  1      80.444596 39.111334 31.941994
 311  1      67.742818 51.333626 45.100195
 312  1      55.041039 63.555918 18.521211
 313  1      88.912448 36.666876 11.458058
 314  1      93.146374 36.666876 5.363010
 315  1      93.146374 29.333501 78.742332
 316  1      101.614227 53.778084 31.941994
 317  1      23.286594 6.111146 65.584131
 318  1      38.105335 7.333375 78.742332
 319  1      71.976744 41.555792 18.521211
 320  1      52.924076 57.444772 31.941994
 321  1      116.432968 59.889230 52.163348
 322  1      14.818741 23.222355 1.700143
 323  1      67.742818 34.222417 35.342280
 324  1      91.029411 55.000314 72.647284
 325  1      48.690150 11.000063 72.647284
 326  1      78.327633 20.777896 31.941994
 327  1      97.380300 31.777959 82.405200
 328  1      69.859781 69.667064 78.742332
 329  1      74.093707 33.000188 61.921263
 330  1      40.222298 3.666688 39.005147
 331  1      95.263337 55.000314 78.742332
 332  1      74.093707 69.667064 55.826216
 333  1      84.678522 26.889042 18.521211
 334  1      27.520520 33.000188 28.279126
 335  1      57.158002 59.889230 18.521211
 336  1      35.988372 57.444772 31.941994
 337  1      86.795485 23.222355 68.984417
 338  1      88.912448 63.555918 35.342280
 339  1      71.976744 63.555918 1.700143
 340  1      105.848153 66.000376 22.184079
 341  1      95.263337 64.778147 48.763063
 342  1      42.339261 7.333375 55.826216
 343  1      27.520520 35.444646 65.584131
 344  1      76.210670 53.778084 82.405200
 345  1      76.210670 61.111459 48.763063
 346  1      23.286594 13.444521 65.584131
 347  1      57.158002 33.000188 39.005147
 348  1      88.912448 51.333626 61.921263
 349  1      52.924076 69.667064 28.279126
 350  1      86.795485 15.888979 18.521211
 351  1      74.093707 13.444521 48.763063
 352  1      110.082079 51.333626 39.005147
 353  1      46.573187 7.333375 72.647284
 354  1      101.614227 51.333626 78.742332
 355  1      82.561559 59.889230 52.163348
 356  1      97.380300 66.000376 45.100195
 357  1      23.286594 23.222355 1.700143
 358  1      48.690150 62.333689 39.005147
 359  1      74.093707 28.111271 82.405200
 360  1      23.286594 25.666813 72.647284
 361  1      10.584815 3.666688 5.363010
 362  1      61.391929 47.666938 45.100195
 363  1      80.444596 24.444584 15.120926
 364  1      10.584815 11.000063 28.279126
 365  1      46.573187 36.666876 72.647284
 366  1      86.795485 47.666938 11.458058
 367  1      50.807113 63.555918 52.163348
 368  1      59.274966 0.000000 45.100195
 369  1      21.169631 14.666750 22.184079
 370  1      46.573187 26.889042 35.342280
 371  1      14.818741 18.333438 55.826216
 372  1      29.637483 29.333501 72.647284
 373  1      65.625855 18.333438 72.647284
 374  1      82.561559 20.777896 65.584131
 375  1      33.871409 36.666876 45.100195
 376  1      31.754446 33.000188 39.005147
 377  1      80.444596 0.000000 5.363010
 378  1      33.871409 14.666750 78.742332
 379  1      38.105335 44.000251 55.826216
 380  1      57.158002 52.555855 68.984417
 381  1      105.848153 61.111459 48.763063
 382  1      50.807113 17.111209 48.763063
 383  1      50.807113 66.000376 55.826216
 384  1      86.795485 57.444772 48.763063
 385  1      44.456224 47.666938 39.005147
 386  1      50.807113 66.000376 11.458058
 387  1      44.456224 8.555604 68.984417
 388  1      99.497264 40.333563 22.184079
 389  1      99.497264 28.111271 48.763063
 390  1      67.742818 36.666876 72.647284
 391  1      46.573187 53.778084 82.405200
 392  1      93.146374 63.555918 18.521211
 393  1      61.391929 30.555730 68.984417
 394  1      35.988372 33.000188 55.826216
 395  1      74.093707 59.889230 18.521211
 396  1      105.848153 44.000251 55.826216
 397  1      82.561559 40.333563 55.826216
 398  1      80.444596 48.889168 1.700143
 399  1      69.859781 15.888979 1.700143
 400  1      86.795485 69.667064 39.005147
 401  1      80.444596 26.889042 68.984417
 402  1      46.573187 63.555918 18.521211
 403  1      69.859781 28.111271 65.584131
 404  1      78.327633 59.889230 18.521211
 405  1      59.274966 7.333375 5.363010
 406  1      55.041039 14.666750 72.647284
 407  1      101.614227 36.666876 39.005147
 408  1      19.052667 8.555604 1.700143
 409  1      59.274966 14.666750 45.100195
 410  1      65.625855 13.444521 48.763063
 411  1      42.339261 19.555667 35.342280
 412  1      103.731190 47.666938 61.921263
 413  1      88.912448 9.777834 31.941994
 414  1      16.935704 4.888917 35.342280
 415  1      21.169631 26.889042 68.984417
 416  1      27.520520 11.000063 61.921263
 417  1      27.520520 3.666688 39.005147
 418  1      19.052667 3.666688 39.005147
 419  1      84.678522 41.555792 18.521211
 420  1      31.754446 50.111397 82.405200
 421  1      46.573187 56.222543 18.521211
 422  1      21.169631 7.333375 72.647284
 423  1      55.041039 56.222543 18.521211
 424  1      12.701778 0.000000 22.184079
 425  1      25.403557 22.000125 72.647284
 426  1      82.561559 40.333563 5.363010
 427  1      82.561559 1.222229 52.163348
 428  1      46.573187 29.333501 22.184079
 429  1      76.210670 70.889293 18.521211
 430  1      50.807113 12.222292 68.984417
 431  1      52.924076 11.000063 72.647284
 432  1      46.573187 9.777834 31.941994
 433  1      78.327633 25.666813 28.279126
 434  1      61.391929 28.111271 31.941994
 435  1      93.146374 36.666876 28.279126
 436  1      114.316005 58.667001 5.363010
 437  1      55.041039 14.666750 45.100195
 438  1      82.561559 64.778147 65.584131
 439  1      33.871409 36.666876 39.005147
 440  1      23.286594 11.000063 61.921263
 441  1      59.274966 17.111209 65.584131
 442  1      114.316005 66.000376 55.826216
 443  1      52.924076 67.222605 68.984417
 444  1      112.199042 59.889230 35.342280
 445  1      69.859781 3.666688 78.742332
 446  1      50.807113 7.333375 55.826216
 447  1      33.871409 46.444709 82.405200
 448  1      33.871409 36.666876 55.826216
 449  1      93.146374 29.333501 5.363010
 450  1      93.146374 66.000376 11.458058
 451  1      16.935704 24.444584 15.120926
 452  1      55.041039 4.888917 52.163348
 453  1      63.508892 14.666750 22.184079
 454  1      6.350889 6.111146 82.405200
 455  1      38.105335 0.000000 45.100195
 456  1      74.093707 33.000188 78.742332
 457  1      44.456224 6.111146 82.405200
 458  1      78.327633 69.667064 72.647284
 459  1      46.573187 36.666876 22.184079
 460  1      23.286594 23.222355 68.984417
 461  1      88.912448 19.555667 35.342280
 462  1      33.871409 17.111209 82.405200
 463  1      50.807113 58.667001 28.279126
 464  1      40.222298 3.666688 5.363010
 465  1      59.274966 70.889293 18.521211
 466  1      50.807113 24.444584 65.584131
 467  1      78.327633 15.888979 1.700143
 468  1      78.327633 1.222229 18.521211
 469  1      101.614227 66.000376 72.647284
 470  1      76.210670 34.222417 18.521211
 471  1      63.508892 0.000000 78.742332
 472  1      82.561559 59.889230 68.984417
 473  1      112.199042 64.778147 31.941994
 474  1      95.263337 25.666813 28.279126
 475  1      107.965116 45.222480 18.521211
 476  1      57.158002 13.444521 15.120926
 477  1      50.807113 22.000125 45.100195
 478  1      91.029411 42.778022 48.763063
 479  1      76.210670 29.333501 72.647284
 480  1      35.988372 18.333438 61.921263
 481  1      48.690150 25.666813 78.742332
 482  1      52.924076 28.111271 15.120926
 483  1      65.625855 23.222355 68.984417
 484  1      48.690150 18.333438 72.647284
 485  1      88.912448 39.111334 48.763063
 486  1      29.637483 46.444709 15.120926
 487  1      10.584815 18.333438 72.647284
 488  1      112.199042 67.222605 52.163348
 489  1      57.158002 62.333689 55.826216
 490  1      99.497264 42.778022 65.584131
 491  1      71.976744 48.889168 1.700143
 492  1      48.690150 47.666938 11.458058
 493  1      80.444596 14.666750 28.279126
 494  1      78.327633 25.666813 5.363010
 495  1      16.935704 22.000125 22.184079
 496  1      88.912448 29.333501 61.921263
 497  1      48.690150 57.444772 65.584131
 498  1      69.859781 69.667064 11.458058
 499  1      44.456224 55.000314 5.363010
 500  1      95.263337 47.666938 11.458058
 501  1      86.795485 69.667064 22.184079
 502  1      65.625855 25.666813 55.826216
 503  1      110.082079 58.667001 55.826216
 504  1      114.316005 53.778084 82.405200
 505  1      31.754446 18.333438 28.279126
 506  1      44.456224 69.667064 61.921263
 507  1      93.146374 36.666876 61.921263
 508  1      14.818741 15.888979 52.163348
 509  1      110.082079 48.889168 52.163348
 510  1      84.678522 24.444584 65.584131
 511  1      14.818741 8.555604 35.342280
 512  1      86.795485 50.111397 82.405200
 513  1      120.666894 69.667064 39.005147
 514  1      101.614227 36.666876 61.921263
 515  1      99.497264 47.666938 78.742332
 516  1      14.818741 3.666688 61.921263
 517  1      107.965116 55.000314 11.458058
 518  1      35.988372 47.666938 61.921263
 519  1      46.573187 63.555918 52.163348
 520  1      82.561559 47.666938 28.279126
 521  1      71.976744 17.111209 65.584131
 522  1      65.625855 64.778147 82.405200
 523  1      40.222298 33.000188 5.363010
 524  1      82.561559 50.111397 15.120926
 525  1      33.871409 22.000125 61.921263
 526  1      59.274966 19.555667 52.163348
 527  1      33.871409 0.000000 28.279126
 528  1      74.093707 20.777896 15.120926
 529  1      40.222298 20.777896 48.763063
 530  1      35.988372 25.666813 11.458058
 531  1      86.795485 20.777896 31.941994
 532  1      76.210670 12.222292 52.163348
 533  1      25.403557 31.777959 48.763063
 534  1      31.754446 40.333563 55.826216
 535  1      84.678522 58.667001 72.647284
 536  1      57.158002 69.667064 39.005147
 537  1      59.274966 14.666750 22.184079
 538  1      67.742818 29.333501 22.184079
 539  1      97.380300 46.444709 65.584131
 540  1      88.912448 22.000125 28.279126
 541  1      25.403557 17.111209 82.405200
 542  1      50.807113 34.222417 68.984417
 543  1      112.199042 64.778147 48.763063
 544  1      55.041039 44.000251 22.184079
 545  1      65.625855 59.889230 1.700143
 546  1      6.350889 8.555604 35.342280
 547  1      57.158002 55.000314 11.458058
 548  1      33.871409 2.444458 15.120926
 549  1      38.105335 58.667001 45.100195
 550  1      97.380300 48.889168 52.163348
 551  1      42.339261 70.889293 18.521211
 552  1      69.859781 42.778022 48.763063
 553  1      74.093707 25.666813 55.826216
 554  1      65.625855 62.333689 11.458058
 555  1      12.701778 12.222292 18.521211
 556  1      40.222298 25.666813 55.826216
 557  1      84.678522 12.222292 52.163348
 558  1      21.169631 17.111209 48.763063
 559  1      88.912448 61.111459 31.941994
 560  1      16.935704 24.444584 65.584131
 561  1      78.327633 64.778147 82.405200
 562  1      97.380300 36.666876 22.184079
 563  1      38.105335 51.333626 22.184079
 564  1      97.380300 53.778084 31.941994
 565  1      42.339261 36.666876 55.826216
 566  1      55.041039 34.222417 35.342280
 567  1      88.912448 66.000376 55.826216
 568  1      69.859781 55.000314 72.647284
 569  1      38.105335 66.000376 5.363010
 570  1      63.508892 29.333501 55.826216
 571  1      8.467852 7.333375 61.921263
 572  1      84.678522 61.111459 15.120926
 573  1      38.105335 66.000376 45.100195
 574  1      93.146374 53.778084 15.120926
 575  1      61.391929 23.222355 52.163348
 576  1      25.403557 29.333501 78.742332
 577  1      65.625855 57.444772 82.405200
 578  1      40.222298 55.000314 72.647284
 579  1      78.327633 72.111522 82.405200
 580  1      40.222298 55.000314 39.005147
 581  1      78.327633 62.333689 5.363010
 582  1      101.614227 51.333626 61.921263
 583  1      61.391929 57.444772 31.941994
 584  1      74.093707 42.778022 82.405200
 585  1      14.818741 3.666688 5.363010
 586  1      8.467852 2.444458 82.405200
 587  1      63.508892 66.000376 55.826216
 588  1      82.561559 3.666688 22.184079
 589  1      116.432968 62.333689 39.005147
 590  1      16.935704 29.333501 11.458058
 591  1      71.976744 19.555667 35.342280
 592  1      76.210670 63.555918 68.984417
 593  1      67.742818 66.000376 55.826216
 594  1      61.391929 72.111522 65.584131
 595  1      40.222298 50.111397 48.763063
 596  1      40.222298 64.778147 48.763063
 597  1      61.391929 30.555730 18.521211
 598  1      31.754446 45.222480 18.521211
 599  1      99.497264 33.000188 39.005147
 600  1      50.807113 29.333501 78.742332
 601  1      93.146374 51.333626 39.005147
 602  1      63.508892 61.111459 31.941994
 603  1      88.912448 48.889168 35.342280
 604  1      19.052667 33.000188 39.005147
 605  1      63.508892 24.444584 15.120926
 606  1      88.912448 22.000125 39.005147
 607  1      91.029411 28.111271 15.120926
 608  1      82.561559 59.889230 18.521211
 609  1      69.859781 13.444521 48.763063
 610  1      55.041039 46.444709 65.584131
 611  1      93.146374 22.000125 45.100195
 612  1      38.105335 14.666750 78.742332
 613  1      82.561559 47.666938 22.184079
 614  1      38.105335 39.111334 65.584131
 615  1      57.158002 67.222605 68.984417
 616  1      52.924076 15.888979 18.521211
 617  1      61.391929 40.333563 22.184079
 618  1      42.339261 36.666876 28.279126
 619  1      82.561559 62.333689 45.100195
 620  1      101.614227 61.111459 48.763063
 621  1      86.795485 50.111397 65.584131
 622  1      88.912448 17.111209 48.763063
 623  1      29.637483 9.777834 82.405200
 624  1      27.520520 23.222355 68.984417
 625  1      86.795485 33.000188 45.100195
 626  1      84.678522 48.889168 52.163348
 627  1      93.146374 24.444584 15.120926
 628  1      84.678522 66.000376 72.647284
 629  1      84.678522 7.333375 72.647284
 630  1      29.637483 51.333626 72.647284
 631  1      110.082079 63.555918 18.521211
 632  1      23.286594 3.666688 78.742332
 633  1      71.976744 29.333501 55.826216
 634  1      74.093707 69.667064 72.647284
 635  1      84.678522 61.111459 82.405200
 636  1      61.391929 25.666813 28.279126
 637  1      91.029411 69.667064 39.005147
 638  1      97.380300 34.222417 35.342280
 639  1      57.158002 18.333438 61.921263
 640  1      55.041039 53.778084 48.763063
 641  1      50.807113 70.889293 1.700143
 642  1      67.742818 22.000125 61.921263
 643  1      29.637483 31.777959 65.584131
 644  1      82.561559 11.000063 45.100195
 645  1      80.444596 44.000251 11.458058
 646  1      48.690150 25.666813 55.826216
 647  1      35.988372 18.333438 5.363010
 648  1      31.754446 1.222229 68.984417
 649  1      93.146374 48.889168 68.984417
 650  1      48.690150 42.778022 31.941994
 651  1      84.678522 7.333375 39.005147
 652  1      78.327633 33.000188 22.184079
 653  1      71.976744 63.555918 35.342280
 654  1      33.871409 36.666876 72.647284
 655  1      59.274966 14.666750 61.921263
 656  1      84.678522 9.777834 15.120926
 657  1      29.637483 34.222417 35.342280
 658  1      88.912448 17.111209 82.405200
 659  1      50.807113 34.222417 52.163348
 660  1      76.210670 63.555918 1.700143
 661  1      63.508892 66.000376 5.363010
 662  1      86.795485 30.555730 35.342280
 663  1      63.508892 51.333626 72.647284
 664  1      86.795485 6.111146 82.405200
 665  1      42.339261 34.222417 1.700143
 666  1      52.924076 8.555604 1.700143
 667  1      27.520520 1.222229 1.700143
 668  1      38.105335 0.000000 55.826216
 669  1      86.795485 40.333563 78.742332
 670  1      48.690150 25.666813 39.005147
 671  1      67.742818 24.444584 82.405200
 672  1      80.444596 66.000376 5.363010
 673  1      40.222298 57.444772 15.120926
 674  1      69.859781 11.000063 22.184079
 675  1      27.520520 25.666813 11.458058
 676  1      67.742818 7.333375 5.363010
 677  1      67.742818 70.889293 35.342280
 678  1      42.339261 19.555667 1.700143
 679  1      80.444596 66.000376 45.100195
 680  1      14.818741 23.222355 35.342280
 681  1      52.924076 6.111146 31.941994
 682  1      23.286594 3.666688 5.363010
 683  1      107.965116 64.778147 65.584131
 684  1      95.263337 50.111397 48.763063
 685  1      16.935704 12.222292 1.700143
 686  1      29.637483 14.666750 28.279126
 687  1      38.105335 22.000125 78.742332
 688  1      82.561559 67.222605 1.700143
 689  1      74.093707 55.000314 5.363010
 690  1      33.871409 39.111334 65.584131
 691  1      42.339261 39.111334 82.405200
 692  1      38.105335 44.000251 45.100195
 693  1      67.742818 36.666876 45.100195
 694  1      33.871409 24.444584 31.941994
 695  1      61.391929 62.333689 61.921263