# Converted from POSCAR to lammps format

10368 atoms
3 atom types

0.000000   67.742256   xlo xhi
0.000000   65.999828   ylo yhi
0.000000   67.284325   zlo zhi

  0.000000    0.000000    0.000000   xy xz yz

Atoms

   1  1      2.116946 1.222219 1.700134
   2  1      23.286400 13.444408 15.120948
   3  1      2.116943 15.888847 18.521215
   4  1      44.455856 20.777721 15.120948
   5  1      42.338909 19.555504 1.700134
   6  1      16.935562 63.555389 18.521215
   7  1      19.052513 64.777603 31.942028
   8  1      21.169455 12.222189 18.521215
   9  1      23.286400 13.444408 31.942028
  10  1      42.338909 17.111065 65.584190
  11  1      40.221966 15.888847 52.163376
  12  1      4.233894 17.111065 15.120948
  13  1      2.116943 15.888847 1.700134
  14  1      21.169455 12.222189 35.342297
  15  1      23.286400 13.444408 48.763111
  16  1      42.338909 17.111065 48.763111
  17  1      40.221966 15.888847 35.342297
  18  1      16.935562 63.555389 35.342297
  19  1      21.169455 12.222189 1.700134
  20  1      4.233894 17.111065 31.942028
  21  1      19.052513 64.777603 15.120948
  22  1      42.338909 19.555504 18.521215
  23  1      4.233894 17.111065 65.584190
  24  1      2.116943 15.888847 52.163376
  25  1      19.052509 8.555532 18.521215
  26  1      21.169455 9.777752 31.942028
  27  1      44.455856 20.777721 65.584190
  28  1      42.338909 19.555504 52.163376
  29  1      14.818619 59.888729 52.163376
  30  1      16.935562 61.110947 65.584190
  31  1      19.052513 64.777603 48.763111
  32  1      19.052509 8.555532 35.342297
  33  1      44.455856 20.777721 48.763111
  34  1      4.233894 17.111065 48.763111
  35  1      2.116943 15.888847 35.342297
  36  1      42.338909 19.555504 35.342297
  37  1      16.935562 63.555389 1.700134
  38  1      19.052509 8.555532 52.163376
  39  1      21.169455 9.777752 65.584190
  40  1      44.455856 20.777721 31.942028
  41  1      21.169455 9.777752 48.763111
  42  1      44.455856 23.222160 1.700134
  43  1      21.169455 12.222189 52.163376
  44  1      42.338909 17.111065 31.942028
  45  1      25.403345 17.111065 65.584190
  46  1      2.116943 13.444408 31.942028
  47  1      0.000000 12.222189 18.521215
  48  1      40.221966 13.444408 31.942028
  49  1      25.403345 19.555504 1.700134
  50  1      27.520290 20.777721 15.120948
  51  1      38.105019 12.222189 18.521215
  52  1      52.923637 1.222219 18.521215
  53  1      40.221966 13.444408 15.120948
  54  1      38.105019 12.222189 1.700134
  55  1      2.116943 13.444408 15.120948
  56  1      25.403345 19.555504 18.521215
  57  1      27.520290 20.777721 31.942028
  58  1      55.040585 2.444438 31.942028
  59  1      0.000000 12.222189 1.700134
  60  1      38.105019 9.777752 65.584190
  61  1      25.403345 19.555504 35.342297
  62  1      23.286400 15.888847 52.163376
  63  1      55.040585 2.444438 15.120948
  64  1      52.923637 1.222219 1.700134
  65  1      38.105019 12.222189 35.342297
  66  1      2.116943 13.444408 65.584190
  67  1      0.000000 12.222189 52.163376
  68  1      40.221966 15.888847 18.521215
  69  1      23.286400 15.888847 1.700134
  70  1      25.403345 17.111065 15.120948
  71  1      42.338909 17.111065 15.120948
  72  1      40.221966 15.888847 1.700134
  73  1      16.935562 63.555389 52.163376
  74  1      23.286400 13.444408 65.584190
  75  1      19.052513 64.777603 65.584190
  76  1      25.403345 17.111065 31.942028
  77  1      2.116943 13.444408 48.763111
  78  1      0.000000 12.222189 35.342297
  79  1      40.221966 13.444408 65.584190
  80  1      23.286400 15.888847 35.342297
  81  1      25.403345 17.111065 48.763111
  82  1      38.105019 12.222189 52.163376
  83  1      40.221966 13.444408 48.763111
  84  1      23.286400 15.888847 18.521215
  85  1      27.520290 20.777721 48.763111
  86  1      46.572800 24.444378 15.120948
  87  1      19.052509 8.555532 1.700134
  88  1      12.701675 56.222076 18.521215
  89  1      46.572800 63.555389 35.342297
  90  1      48.689747 64.777603 48.763111
  91  1      14.818619 57.444294 31.942028
  92  1      50.806694 31.777695 31.942028
  93  1      48.689747 30.555473 18.521215
  94  1      46.572800 63.555389 52.163376
  95  1      48.689747 64.777603 65.584190
  96  1      50.806694 31.777695 15.120948
  97  1      8.467781 24.444378 15.120948
  98  1      6.350830 23.222160 1.700134
  99  1      48.689747 30.555473 1.700134
 100  1      12.701675 56.222076 35.342297
 101  1      14.818618 1.222219 1.700134
 102  1      16.935564 2.444438 15.120948
 103  1      14.818619 57.444294 48.763111
 104  1      48.689747 28.111038 65.584190
 105  1      6.350830 23.222160 18.521215
 106  1      8.467781 24.444378 31.942028
 107  1      48.689747 30.555473 35.342297
 108  1      50.806694 31.777695 48.763111
 109  1      46.572800 61.110947 48.763111
 110  1      6.350830 23.222160 52.163376
 111  1      52.923637 35.444347 31.942028
 112  1      50.806690 34.222130 18.521215
 113  1      44.455856 59.888729 52.163376
 114  1      46.572800 61.110947 65.584190
 115  1      52.923637 35.444347 15.120948
 116  1      50.806690 34.222130 1.700134
 117  1      46.572800 26.888817 52.163376
 118  1      12.701675 56.222076 1.700134
 119  1      6.350830 23.222160 35.342297
 120  1      46.572800 63.555389 1.700134
 121  1      48.689747 64.777603 15.120948
 122  1      14.818619 57.444294 15.120948
 123  1      50.806694 31.777695 65.584190
 124  1      48.689747 30.555473 52.163376
 125  1      46.572800 63.555389 18.521215
 126  1      48.689747 64.777603 31.942028
 127  1      8.467781 24.444378 48.763111
 128  1      21.169455 9.777752 15.120948
 129  1      14.818618 1.222219 18.521215
 130  1      12.701675 56.222076 52.163376
 131  1      19.052509 6.111094 31.942028
 132  1      46.572800 24.444378 65.584190
 133  1      44.455856 23.222160 52.163376
 134  1      14.818619 59.888729 18.521215
 135  1      16.935562 61.110947 31.942028
 136  1      16.935564 4.888876 35.342297
 137  1      19.052509 6.111094 48.763111
 138  1      46.572800 24.444378 48.763111
 139  1      44.455856 23.222160 35.342297
 140  1      6.350838 20.777721 15.120948
 141  1      4.233887 19.555504 1.700134
 142  1      16.935564 4.888876 52.163376
 143  1      19.052509 6.111094 65.584190
 144  1      46.572800 24.444378 31.942028
 145  1      44.455856 23.222160 18.521215
 146  1      14.818619 59.888729 35.342297
 147  1      16.935562 61.110947 48.763111
 148  1      16.935564 4.888876 18.521215
 149  1      4.233887 19.555504 18.521215
 150  1      6.350838 20.777721 31.942028
 151  1      46.572800 26.888817 1.700134
 152  1      6.350838 20.777721 65.584190
 153  1      4.233887 19.555504 52.163376
 154  1      48.689747 28.111038 48.763111
 155  1      46.572800 26.888817 35.342297
 156  1      14.818618 1.222219 35.342297
 157  1      16.935564 2.444438 48.763111
 158  1      14.818619 57.444294 65.584190
 159  1      48.689747 28.111038 31.942028
 160  1      16.935564 2.444438 31.942028
 161  1      6.350838 20.777721 48.763111
 162  1      16.935564 2.444438 65.584190
 163  1      46.572800 26.888817 18.521215
 164  1      14.818619 59.888729 1.700134
 165  1      4.233887 19.555504 35.342297
 166  1      16.935562 61.110947 15.120948
 167  1      48.689747 28.111038 15.120948
 168  1      16.935564 4.888876 1.700134
 169  1      19.052509 6.111094 15.120948
 170  1      14.818618 1.222219 52.163376
 171  1      44.455856 59.888729 35.342297
 172  1      35.988075 8.555532 52.163376
 173  1      55.040585 2.444438 48.763111
 174  1      63.508366 2.444438 31.942028
 175  1      61.391418 1.222219 18.521215
 176  1      35.988071 37.888790 18.521215
 177  1      38.105019 39.111008 31.942028
 178  1      63.508362 61.110947 31.942028
 179  1      61.391418 59.888729 18.521215
 180  1      59.274471 12.222189 1.700134
 181  1      61.391422 13.444408 15.120948
 182  1      63.508362 61.110947 15.120948
 183  1      35.988071 37.888790 35.342297
 184  1      38.105019 39.111008 48.763111
 185  1      61.391418 59.888729 1.700134
 186  1      63.508366 2.444438 15.120948
 187  1      61.391418 1.222219 1.700134
 188  1      35.988071 37.888790 52.163376
 189  1      38.105019 39.111008 65.584190
 190  1      61.391418 57.444294 65.584190
 191  1      59.274475 9.777752 65.584190
 192  1      38.105019 39.111008 15.120948
 193  1      35.988071 37.888790 1.700134
 194  1      61.391418 59.888729 35.342297
 195  1      33.871128 34.222130 18.521215
 196  1      35.988071 35.444347 31.942028
 197  1      63.508366 2.444438 65.584190
 198  1      61.391418 1.222219 52.163376
 199  1      65.625313 64.777603 15.120948
 200  1      63.508366 63.555389 1.700134
 201  1      57.157528 8.555532 35.342297
 202  1      33.871128 34.222130 35.342297
 203  1      59.274475 56.222076 52.163376
 204  1      35.988071 35.444347 48.763111
 205  1      63.508362 61.110947 65.584190
 206  1      63.508366 2.444438 48.763111
 207  1      33.871128 34.222130 52.163376
 208  1      35.988071 35.444347 65.584190
 209  1      61.391418 59.888729 52.163376
 210  1      57.157528 8.555532 52.163376
 211  1      61.391418 1.222219 35.342297
 212  1      63.508362 61.110947 48.763111
 213  1      59.274475 9.777752 48.763111
 214  1      63.508366 63.555389 18.521215
 215  1      59.274471 12.222189 18.521215
 216  1      38.105019 41.555443 1.700134
 217  1      61.391422 13.444408 65.584190
 218  1      27.520294 64.777603 31.942028
 219  1      40.221966 45.222103 1.700134
 220  1      42.338909 46.444321 15.120948
 221  1      25.403343 63.555389 18.521215
 222  1      59.274471 53.777634 48.763111
 223  1      57.157528 52.555416 35.342297
 224  1      61.391418 15.888847 1.700134
 225  1      40.221966 45.222103 18.521215
 226  1      42.338909 46.444321 31.942028
 227  1      59.274471 53.777634 31.942028
 228  1      57.157528 52.555416 18.521215
 229  1      63.508366 17.111065 15.120948
 230  1      27.520294 64.777603 15.120948
 231  1      25.403343 63.555389 1.700134
 232  1      40.221966 45.222103 35.342297
 233  1      42.338909 46.444321 48.763111
 234  1      59.274471 12.222189 52.163376
 235  1      57.157528 52.555416 52.163376
 236  1      59.274471 53.777634 65.584190
 237  1      40.221962 42.777660 65.584190
 238  1      40.221962 42.777660 15.120948
 239  1      61.391418 57.444294 48.763111
 240  1      59.274475 56.222076 35.342297
 241  1      27.520294 64.777603 65.584190
 242  1      25.403343 63.555389 52.163376
 243  1      38.105019 41.555443 18.521215
 244  1      40.221962 42.777660 31.942028
 245  1      61.391418 57.444294 31.942028
 246  1      61.391422 13.444408 31.942028
 247  1      59.274475 56.222076 18.521215
 248  1      61.391422 13.444408 48.763111
 249  1      38.105019 41.555443 35.342297
 250  1      40.221962 42.777660 48.763111
 251  1      61.391418 57.444294 15.120948
 252  1      27.520294 64.777603 48.763111
 253  1      25.403343 63.555389 35.342297
 254  1      59.274475 56.222076 1.700134
 255  1      38.105019 41.555443 52.163376
 256  1      59.274471 12.222189 35.342297
 257  1      52.923637 1.222219 35.342297
 258  1      65.625313 64.777603 31.942028
 259  1      35.988071 35.444347 15.120948
 260  1      55.040581 4.888876 1.700134
 261  1      57.157532 6.111094 15.120948
 262  1      0.000000 9.777752 31.942028
 263  1      65.625305 8.555532 18.521215
 264  1      27.520290 23.222160 52.163376
 265  1      29.637236 24.444378 65.584190
 266  1      35.988075 6.111094 48.763111
 267  1      33.871128 4.888876 35.342297
 268  1      35.988075 6.111094 31.942028
 269  1      29.637236 26.888817 1.700134
 270  1      31.754183 28.111038 15.120948
 271  1      33.871128 4.888876 18.521215
 272  1      55.040581 4.888876 18.521215
 273  1      0.000000 9.777752 15.120948
 274  1      65.625305 8.555532 1.700134
 275  1      57.157532 6.111094 31.942028
 276  1      29.637236 26.888817 18.521215
 277  1      33.871128 4.888876 52.163376
 278  1      29.637236 24.444378 48.763111
 279  1      27.520290 23.222160 35.342297
 280  1      35.988075 6.111094 65.584190
 281  1      0.000000 9.777752 65.584190
 282  1      65.625305 8.555532 52.163376
 283  1      25.403345 19.555504 52.163376
 284  1      27.520290 20.777721 65.584190
 285  1      38.105019 9.777752 48.763111
 286  1      35.988075 8.555532 35.342297
 287  1      38.105019 9.777752 31.942028
 288  1      27.520290 23.222160 1.700134
 289  1      31.754183 28.111038 31.942028
 290  1      29.637236 24.444378 15.120948
 291  1      52.923637 1.222219 52.163376
 292  1      55.040585 2.444438 65.584190
 293  1      0.000000 9.777752 48.763111
 294  1      65.625305 8.555532 35.342297
 295  1      27.520290 23.222160 18.521215
 296  1      29.637236 24.444378 31.942028
 297  1      38.105019 9.777752 15.120948
 298  1      35.988075 8.555532 1.700134
 299  1      35.988075 8.555532 18.521215
 300  1      59.274475 9.777752 31.942028
 301  1      35.988075 6.111094 15.120948
 302  1      55.040581 4.888876 35.342297
 303  1      31.754183 1.222219 1.700134
 304  1      65.625313 6.111094 31.942028
 305  1      63.508362 4.888876 18.521215
 306  1      57.157528 8.555532 1.700134
 307  1      31.754181 30.555473 35.342297
 308  1      33.871128 31.777695 48.763111
 309  1      59.274475 9.777752 15.120948
 310  1      65.625313 64.777603 65.584190
 311  1      63.508366 63.555389 52.163376
 312  1      31.754181 30.555473 52.163376
 313  1      33.871128 31.777695 65.584190
 314  1      65.625313 64.777603 48.763111
 315  1      65.625313 6.111094 15.120948
 316  1      63.508362 4.888876 1.700134
 317  1      63.508366 63.555389 35.342297
 318  1      57.157528 8.555532 18.521215
 319  1      33.871128 34.222130 1.700134
 320  1      33.871128 2.444438 15.120948
 321  1      33.871128 31.777695 31.942028
 322  1      31.754181 30.555473 18.521215
 323  1      31.754183 1.222219 18.521215
 324  1      65.625313 6.111094 65.584190
 325  1      29.637236 26.888817 35.342297
 326  1      31.754183 28.111038 48.763111
 327  1      33.871128 2.444438 65.584190
 328  1      63.508362 4.888876 52.163376
 329  1      31.754183 1.222219 52.163376
 330  1      57.157532 6.111094 48.763111
 331  1      29.637236 26.888817 52.163376
 332  1      33.871128 4.888876 1.700134
 333  1      31.754183 28.111038 65.584190
 334  1      31.754183 1.222219 35.342297
 335  1      55.040581 4.888876 52.163376
 336  1      65.625313 6.111094 48.763111
 337  1      63.508362 4.888876 35.342297
 338  1      31.754181 30.555473 1.700134
 339  1      33.871128 31.777695 15.120948
 340  1      57.157532 6.111094 65.584190
 341  1      33.871128 2.444438 31.942028
 342  1      33.871128 2.444438 48.763111
 343  1      59.274471 53.777634 15.120948
 344  1      8.467781 24.444378 65.584190
 345  1      10.584724 52.555416 52.163376
 346  1      38.105019 2.444438 48.763111
 347  1      35.988075 1.222219 35.342297
 348  1      0.000000 34.222130 52.163376
 349  1      2.116943 35.444347 65.584190
 350  1      25.403345 26.888817 1.700134
 351  1      27.520292 28.111038 15.120948
 352  1      38.105019 2.444438 31.942028
 353  1      21.169456 46.444321 15.120948
 354  1      19.052505 45.222103 1.700134
 355  1      35.988075 1.222219 18.521215
 356  1      25.403345 26.888817 18.521215
 357  1      27.520292 28.111038 31.942028
 358  1      38.105019 2.444438 15.120948
 359  1      35.988075 1.222219 1.700134
 360  1      2.116943 37.888790 1.700134
 361  1      4.233894 39.111008 15.120948
 362  1      19.052505 42.777660 65.584190
 363  1      25.403345 24.444378 65.584190
 364  1      23.286400 23.222160 52.163376
 365  1      19.052505 45.222103 18.521215
 366  1      21.169456 46.444321 31.942028
 367  1      40.221966 6.111094 31.942028
 368  1      23.286400 23.222160 1.700134
 369  1      25.403345 24.444378 15.120948
 370  1      38.105019 4.888876 18.521215
 371  1      0.000000 34.222130 18.521215
 372  1      2.116943 35.444347 31.942028
 373  1      21.169456 46.444321 48.763111
 374  1      19.052505 45.222103 35.342297
 375  1      25.403345 26.888817 35.342297
 376  1      23.286400 23.222160 18.521215
 377  1      40.221966 6.111094 15.120948
 378  1      38.105019 4.888876 1.700134
 379  1      0.000000 34.222130 35.342297
 380  1      23.286400 23.222160 35.342297
 381  1      25.403345 24.444378 48.763111
 382  1      38.105019 2.444438 65.584190
 383  1      35.988075 1.222219 52.163376
 384  1      2.116943 35.444347 48.763111
 385  1      25.403345 24.444378 31.942028
 386  1      38.105019 4.888876 35.342297
 387  1      27.520292 28.111038 48.763111
 388  1      2.116943 64.777603 65.584190
 389  1      4.233894 39.111008 48.763111
 390  1      0.000000 61.110947 65.584190
 391  1      65.625313 59.888729 52.163376
 392  1      27.520290 30.555473 52.163376
 393  1      29.637238 31.777695 65.584190
 394  1      2.116943 37.888790 52.163376
 395  1      19.052505 42.777660 15.120948
 396  1      16.935562 41.555443 1.700134
 397  1      0.000000 61.110947 48.763111
 398  1      65.625313 59.888729 35.342297
 399  1      29.637236 34.222130 1.700134
 400  1      31.754183 35.444347 15.120948
 401  1      4.233894 39.111008 65.584190
 402  1      0.000000 61.110947 31.942028
 403  1      65.625313 59.888729 18.521215
 404  1      29.637236 34.222130 18.521215
 405  1      31.754183 35.444347 31.942028
 406  1      29.637238 31.777695 48.763111
 407  1      27.520290 30.555473 35.342297
 408  1      2.116943 37.888790 35.342297
 409  1      16.935562 41.555443 18.521215
 410  1      0.000000 63.555389 52.163376
 411  1      25.403345 26.888817 52.163376
 412  1      27.520292 28.111038 65.584190
 413  1      2.116943 64.777603 48.763111
 414  1      0.000000 63.555389 35.342297
 415  1      2.116943 37.888790 18.521215
 416  1      19.052505 42.777660 48.763111
 417  1      16.935562 41.555443 35.342297
 418  1      16.935562 41.555443 52.163376
 419  1      27.520290 30.555473 1.700134
 420  1      4.233894 39.111008 31.942028
 421  1      2.116943 64.777603 31.942028
 422  1      0.000000 63.555389 18.521215
 423  1      27.520290 30.555473 18.521215
 424  1      29.637238 31.777695 31.942028
 425  1      2.116943 64.777603 15.120948
 426  1      0.000000 63.555389 1.700134
 427  1      19.052505 42.777660 31.942028
 428  1      29.637238 31.777695 15.120948
 429  1      4.233887 41.555443 1.700134
 430  1      40.221966 6.111094 48.763111
 431  1      21.169455 19.555504 52.163376
 432  1      16.935564 12.222189 18.521215
 433  1      19.052509 13.444408 31.942028
 434  1      44.455856 13.444408 65.584190
 435  1      25.403343 53.777634 15.120948
 436  1      23.286400 52.555416 1.700134
 437  1      16.935564 12.222189 35.342297
 438  1      19.052509 13.444408 48.763111
 439  1      42.338909 12.222189 52.163376
 440  1      44.455856 13.444408 48.763111
 441  1      42.338909 12.222189 35.342297
 442  1      65.625305 30.555473 1.700134
 443  1      0.000000 31.777695 15.120948
 444  1      16.935564 12.222189 52.163376
 445  1      19.052509 13.444408 65.584190
 446  1      23.286400 50.110981 65.584190
 447  1      21.169449 48.888756 52.163376
 448  1      44.455856 13.444408 31.942028
 449  1      65.625313 28.111038 65.584190
 450  1      63.508362 26.888817 52.163376
 451  1      44.455856 15.888847 1.700134
 452  1      46.572800 17.111065 15.120948
 453  1      46.572800 17.111065 65.584190
 454  1      44.455856 15.888847 52.163376
 455  1      14.818618 8.555532 35.342297
 456  1      16.935564 9.777752 48.763111
 457  1      46.572800 17.111065 48.763111
 458  1      25.403343 53.777634 48.763111
 459  1      23.286400 52.555416 35.342297
 460  1      44.455856 15.888847 35.342297
 461  1      19.052509 15.888847 1.700134
 462  1      63.508362 26.888817 35.342297
 463  1      14.818618 8.555532 52.163376
 464  1      16.935564 9.777752 65.584190
 465  1      46.572800 17.111065 31.942028
 466  1      44.455856 15.888847 18.521215
 467  1      25.403343 53.777634 31.942028
 468  1      16.935564 12.222189 1.700134
 469  1      19.052509 13.444408 15.120948
 470  1      23.286400 52.555416 18.521215
 471  1      65.625313 28.111038 48.763111
 472  1      23.286400 20.777721 65.584190
 473  1      21.169455 17.111065 15.120948
 474  1      65.625305 30.555473 18.521215
 475  1      40.221966 8.555532 18.521215
 476  1      65.625305 30.555473 52.163376
 477  1      0.000000 31.777695 65.584190
 478  1      23.286400 50.110981 15.120948
 479  1      21.169455 19.555504 18.521215
 480  1      23.286400 20.777721 31.942028
 481  1      42.338909 9.777752 15.120948
 482  1      40.221966 8.555532 1.700134
 483  1      21.169449 48.888756 1.700134
 484  1      40.221966 6.111094 65.584190
 485  1      21.169455 19.555504 35.342297
 486  1      23.286400 20.777721 48.763111
 487  1      38.105019 4.888876 52.163376
 488  1      0.000000 34.222130 1.700134
 489  1      2.116943 35.444347 15.120948
 490  1      21.169456 46.444321 65.584190
 491  1      19.052505 45.222103 52.163376
 492  1      23.286400 20.777721 15.120948
 493  1      21.169455 19.555504 1.700134
 494  1      42.338909 9.777752 31.942028
 495  1      21.169449 48.888756 18.521215
 496  1      44.455856 13.444408 15.120948
 497  1      42.338909 12.222189 1.700134
 498  1      0.000000 31.777695 31.942028
 499  1      19.052509 15.888847 18.521215
 500  1      21.169455 17.111065 31.942028
 501  1      23.286400 50.110981 48.763111
 502  1      21.169449 48.888756 35.342297
 503  1      42.338909 9.777752 65.584190
 504  1      42.338909 12.222189 18.521215
 505  1      19.052509 15.888847 35.342297
 506  1      40.221966 8.555532 52.163376
 507  1      65.625305 30.555473 35.342297
 508  1      0.000000 31.777695 48.763111
 509  1      42.338909 9.777752 48.763111
 510  1      40.221966 8.555532 35.342297
 511  1      19.052509 15.888847 52.163376
 512  1      21.169455 17.111065 65.584190
 513  1      23.286400 50.110981 31.942028
 514  1      21.169455 17.111065 48.763111
 515  1      12.701675 53.777634 65.584190
 516  1      6.350838 42.777660 15.120948
 517  1      14.818619 37.888790 52.163376
 518  1      57.157528 42.777660 65.584190
 519  1      40.221966 52.555416 1.700134
 520  1      42.338909 53.777634 15.120948
 521  1      55.040581 41.555443 52.163376
 522  1      8.467781 48.888756 35.342297
 523  1      10.584732 50.110981 48.763111
 524  1      57.157528 42.777660 48.763111
 525  1      12.701675 31.777695 15.120948
 526  1      40.221966 52.555416 18.521215
 527  1      42.338909 53.777634 31.942028
 528  1      55.040581 41.555443 35.342297
 529  1      10.584724 30.555473 1.700134
 530  1      57.157528 42.777660 31.942028
 531  1      40.221966 52.555416 35.342297
 532  1      42.338909 53.777634 48.763111
 533  1      55.040581 41.555443 18.521215
 534  1      8.467781 48.888756 52.163376
 535  1      10.584724 30.555473 18.521215
 536  1      12.701675 31.777695 31.942028
 537  1      40.221966 50.110981 65.584190
 538  1      38.105019 48.888756 52.163376
 539  1      40.221966 50.110981 15.120948
 540  1      57.157528 45.222103 52.163376
 541  1      59.274475 46.444321 48.763111
 542  1      57.157528 45.222103 35.342297
 543  1      8.467781 48.888756 1.700134
 544  1      10.584732 50.110981 15.120948
 545  1      38.105019 48.888756 18.521215
 546  1      40.221966 50.110981 31.942028
 547  1      10.584732 50.110981 65.584190
 548  1      12.701675 31.777695 48.763111
 549  1      59.274475 46.444321 31.942028
 550  1      38.105019 48.888756 35.342297
 551  1      40.221966 50.110981 48.763111
 552  1      57.157528 45.222103 18.521215
 553  1      8.467781 48.888756 18.521215
 554  1      59.274475 46.444321 15.120948
 555  1      57.157528 45.222103 1.700134
 556  1      10.584732 50.110981 31.942028
 557  1      10.584724 30.555473 35.342297
 558  1      38.105019 48.888756 1.700134
 559  1      10.584732 28.111038 65.584190
 560  1      40.221966 52.555416 52.163376
 561  1      8.467781 26.888817 18.521215
 562  1      42.338909 56.222076 52.163376
 563  1      44.455856 57.444294 65.584190
 564  1      55.040585 39.111008 15.120948
 565  1      52.923637 37.888790 1.700134
 566  1      10.584724 52.555416 35.342297
 567  1      44.455856 59.888729 1.700134
 568  1      46.572800 61.110947 15.120948
 569  1      52.923637 35.444347 65.584190
 570  1      50.806690 34.222130 52.163376
 571  1      10.584732 28.111038 15.120948
 572  1      8.467781 26.888817 1.700134
 573  1      12.701675 53.777634 48.763111
 574  1      44.455856 59.888729 18.521215
 575  1      46.572800 61.110947 31.942028
 576  1      52.923637 35.444347 48.763111
 577  1      50.806690 34.222130 35.342297
 578  1      10.584732 28.111038 31.942028
 579  1      12.701675 53.777634 31.942028
 580  1      10.584724 52.555416 18.521215
 581  1      52.923637 37.888790 18.521215
 582  1      42.338909 53.777634 65.584190
 583  1      57.157528 42.777660 15.120948
 584  1      55.040581 41.555443 1.700134
 585  1      55.040585 39.111008 65.584190
 586  1      42.338909 56.222076 1.700134
 587  1      44.455856 57.444294 15.120948
 588  1      52.923637 37.888790 52.163376
 589  1      10.584724 52.555416 1.700134
 590  1      8.467781 26.888817 52.163376
 591  1      12.701675 53.777634 15.120948
 592  1      8.467781 26.888817 35.342297
 593  1      42.338909 56.222076 18.521215
 594  1      44.455856 57.444294 31.942028
 595  1      55.040585 39.111008 48.763111
 596  1      52.923637 37.888790 35.342297
 597  1      55.040585 39.111008 31.942028
 598  1      42.338909 56.222076 35.342297
 599  1      44.455856 57.444294 48.763111
 600  1      10.584732 28.111038 48.763111
 601  1      16.935562 39.111008 65.584190
 602  1      59.274475 46.444321 65.584190
 603  1      12.701675 31.777695 65.584190
 604  1      4.233887 41.555443 35.342297
 605  1      6.350838 42.777660 48.763111
 606  1      31.754183 37.888790 35.342297
 607  1      33.871128 39.111008 48.763111
 608  1      65.625313 57.444294 15.120948
 609  1      63.508366 56.222076 1.700134
 610  1      16.935562 39.111008 15.120948
 611  1      14.818619 37.888790 1.700134
 612  1      31.754183 37.888790 52.163376
 613  1      33.871128 39.111008 65.584190
 614  1      63.508366 53.777634 65.584190
 615  1      61.391418 52.555416 52.163376
 616  1      4.233887 41.555443 52.163376
 617  1      6.350838 42.777660 65.584190
 618  1      33.871128 41.555443 1.700134
 619  1      35.988071 42.777660 15.120948
 620  1      63.508366 53.777634 48.763111
 621  1      63.508366 56.222076 18.521215
 622  1      65.625313 57.444294 31.942028
 623  1      33.871128 39.111008 31.942028
 624  1      31.754183 37.888790 18.521215
 625  1      0.000000 61.110947 15.120948
 626  1      29.637236 34.222130 35.342297
 627  1      31.754183 35.444347 48.763111
 628  1      65.625313 59.888729 1.700134
 629  1      65.625313 57.444294 65.584190
 630  1      16.935562 39.111008 48.763111
 631  1      29.637236 34.222130 52.163376
 632  1      31.754183 35.444347 65.584190
 633  1      61.391418 52.555416 35.342297
 634  1      63.508366 56.222076 52.163376
 635  1      14.818619 37.888790 35.342297
 636  1      6.350838 42.777660 31.942028
 637  1      31.754183 37.888790 1.700134
 638  1      33.871128 39.111008 15.120948
 639  1      65.625313 57.444294 48.763111
 640  1      63.508366 56.222076 35.342297
 641  1      16.935562 39.111008 31.942028
 642  1      14.818619 37.888790 18.521215
 643  1      4.233887 41.555443 18.521215
 644  1      10.584724 30.555473 52.163376
 645  1      14.818619 35.444347 65.584190
 646  1      6.350838 45.222103 1.700134
 647  1      59.274471 48.888756 35.342297
 648  1      6.350838 45.222103 35.342297
 649  1      8.467781 46.444321 48.763111
 650  1      35.988075 45.222103 18.521215
 651  1      38.105019 46.444321 31.942028
 652  1      61.391422 50.110981 31.942028
 653  1      59.274471 48.888756 18.521215
 654  1      14.818619 35.444347 15.120948
 655  1      12.701668 34.222130 1.700134
 656  1      35.988075 45.222103 35.342297
 657  1      38.105019 46.444321 48.763111
 658  1      61.391422 50.110981 15.120948
 659  1      59.274471 48.888756 1.700134
 660  1      6.350838 45.222103 52.163376
 661  1      8.467781 46.444321 65.584190
 662  1      35.988075 45.222103 52.163376
 663  1      38.105019 46.444321 65.584190
 664  1      61.391422 50.110981 48.763111
 665  1      12.701668 34.222130 18.521215
 666  1      38.105019 46.444321 15.120948
 667  1      35.988075 45.222103 1.700134
 668  1      33.871128 41.555443 18.521215
 669  1      35.988071 42.777660 31.942028
 670  1      63.508366 53.777634 31.942028
 671  1      61.391418 52.555416 18.521215
 672  1      8.467781 46.444321 15.120948
 673  1      33.871128 41.555443 35.342297
 674  1      35.988071 20.777721 15.120948
 675  1      63.508366 53.777634 15.120948
 676  1      12.701668 34.222130 52.163376
 677  1      14.818619 35.444347 48.763111
 678  1      61.391418 52.555416 1.700134
 679  1      6.350838 45.222103 18.521215
 680  1      8.467781 46.444321 31.942028
 681  1      33.871128 41.555443 52.163376
 682  1      35.988071 42.777660 65.584190
 683  1      61.391422 50.110981 65.584190
 684  1      59.274471 48.888756 52.163376
 685  1      14.818619 35.444347 31.942028
 686  1      12.701668 34.222130 35.342297
 687  1      57.157528 52.555416 1.700134
 688  1      61.391418 15.888847 18.521215
 689  1      63.508366 17.111065 31.942028
 690  1      16.935562 53.777634 15.120948
 691  1      46.572800 48.888756 35.342297
 692  1      48.689747 50.110981 48.763111
 693  1      55.040581 53.777634 15.120948
 694  1      52.923637 52.555416 1.700134
 695  1      14.818619 52.555416 18.521215
 696  1      16.935562 53.777634 31.942028
 697  1      46.572800 48.888756 52.163376
 698  1      48.689747 50.110981 65.584190
 699  1      4.233894 24.444378 31.942028