# Converted from POSCAR to lammps format

10368 atoms
3 atom types

0.000000   69.478769   xlo xhi
0.000000   69.478769   ylo yhi
0.000000   69.478769   zlo zhi

  0.000000    0.000000    0.000000   xy xz yz

Atoms

   1  1      13.027264 43.745887 19.125275
   2  1      45.595443 32.166094 48.636547
   3  1      8.684846 12.866437 13.897159
   4  1      56.451501 33.452740 27.413828
   5  1      8.684845 23.159590 34.739384
   6  1      0.000000 0.000000 11.831802
   7  1      8.684845 51.465748 42.064943
   8  1      17.369692 20.586301 31.266851
   9  1      15.198481 50.179106 11.831802
  10  1      6.513636 50.179106 0.000000
  11  1      21.712117 56.612326 44.783520
  12  1      56.451501 33.452740 50.353495
  13  1      49.937865 60.472261 62.153211
  14  1      43.424230 36.026025 36.494968
  15  1      13.027272 30.879451 46.571188
  16  1      41.253020 1.286644 36.494968
  17  1      2.171209 32.166094 42.064943
  18  1      65.136342 36.026025 53.864658
  19  1      26.054535 64.332188 50.353495
  20  1      15.198481 57.898968 63.940882
  21  1      49.937865 50.179106 0.000000
  22  1      26.054537 43.745887 66.006237
  23  1      58.622710 16.726370 48.636547
  24  1      45.595443 21.872943 3.472532
  25  1      52.109075 41.172602 27.413828
  26  1      0.000000 33.452740 62.153211
  27  1      49.937865 19.299659 52.109075
  28  1      28.225751 39.885960 36.494968
  29  1      47.766652 64.332188 15.614110
  30  1      0.000000 46.319179 5.537890
  31  1      36.910594 45.032529 27.413828
  32  1      26.054537 18.013012 38.211916
  33  1      2.171209 60.472261 15.614110
  34  1      60.793924 10.293150 67.723186
  35  1      30.396960 18.013012 38.211916
  36  1      34.739384 15.439726 34.739384
  37  1      47.766652 56.612326 27.413828
  38  1      0.000000 48.892464 32.983801
  39  1      2.171209 42.459244 57.646965
  40  1      65.136346 66.905480 24.695248
  41  1      56.451497 48.892464 10.044134
  42  1      0.000000 56.612326 10.044134
  43  1      6.513636 27.019521 40.277271
  44  1      21.712115 18.013012 32.983801
  45  1      43.424230 38.599317 46.571188
  46  1      6.513636 16.726370 59.434633
  47  1      47.766652 5.146575 1.755583
  48  1      47.766652 25.732874 3.472532
  49  1      39.081807 7.719863 63.940882
  50  1      30.396962 33.452740 3.472532
  51  1      47.766652 66.905480 42.064943
  52  1      10.856054 45.032529 44.783520
  53  1      65.136342 12.866437 42.064943
  54  1      10.856057 3.859931 34.739384
  55  1      45.595443 60.472261 44.783520
  56  1      19.540907 60.472261 55.581606
  57  1      45.595443 19.299659 63.940882
  58  1      60.793924 48.892464 3.472532
  59  1      56.451497 61.758903 5.537890
  60  1      23.883326 9.006506 66.006237
  61  1      45.595443 21.872943 38.211916
  62  1      23.883326 47.605822 7.325558
  63  1      4.342426 48.892464 50.353495
  64  1      10.856062 50.179106 52.109075
  65  1      43.424230 30.879451 52.109075
  66  1      6.513634 9.006506 59.434633
  67  1      36.910598 47.605822 1.755583
  68  1      8.684846 7.719863 22.907583
  69  1      28.225749 14.153081 55.581606
  70  1      45.595443 42.459244 40.277271
  71  1      65.136342 43.745887 36.494968
  72  1      34.739388 66.905480 66.006237
  73  1      17.369692 28.306163 7.325558
  74  1      2.171209 19.299659 11.831802
  75  1      41.253020 47.605822 42.064943
  76  1      47.766652 20.586301 19.125275
  77  1      0.000000 36.026025 53.864658
  78  1      58.622710 57.898968 40.277271
  79  1      6.513636 45.032529 10.044134
  80  1      13.027270 0.000000 52.109075
  81  1      56.451501 0.000000 57.646965
  82  1      8.684845 43.745887 66.006237
  83  1      30.396960 15.439726 5.537890
  84  1      23.883326 21.872943 44.783520
  85  1      36.910598 60.472261 50.353495
  86  1      58.622714 21.872943 67.723186
  87  1      39.081807 15.439726 63.940882
  88  1      36.910598 29.592809 38.211916
  89  1      60.793924 15.439726 52.109075
  90  1      17.369690 51.465748 59.434633
  91  1      6.513634 9.006506 53.864658
  92  1      60.793920 20.586301 48.636547
  93  1      10.856054 45.032529 15.614110
  94  1      8.684845 23.159590 40.277271
  95  1      65.136346 46.319179 52.109075
  96  1      41.253020 6.433219 27.413828
  97  1      49.937865 34.739382 11.831802
  98  1      65.136346 15.439726 22.907583
  99  1      21.712117 54.039041 17.369692
 100  1      43.424230 56.612326 62.153211
 101  1      67.307552 24.446232 31.266851
 102  1      49.937865 47.605822 42.064943
 103  1      2.171209 37.312667 3.472532
 104  1      67.307559 39.885960 53.864658
 105  1      4.342426 66.905480 24.695248
 106  1      23.883326 34.739382 22.907583
 107  1      34.739384 43.745887 7.325558
 108  1      23.883328 19.299659 40.277271
 109  1      8.684853 18.013012 67.723186
 110  1      19.540900 63.045545 59.434633
 111  1      41.253016 34.739382 63.940882
 112  1      15.198481 27.019521 11.831802
 113  1      62.965133 34.739382 46.571188
 114  1      34.739384 7.719863 34.739384
 115  1      10.856054 24.446232 7.325558
 116  1      30.396960 28.306163 13.897159
 117  1      21.712117 46.319179 11.831802
 118  1      67.307552 34.739382 0.000000
 119  1      15.198481 37.312667 44.783520
 120  1      56.451497 28.306163 66.006237
 121  1      39.081807 41.172602 38.211916
 122  1      17.369692 20.586301 48.636547
 123  1      23.883326 60.472261 3.472532
 124  1      28.225749 50.179106 34.739384
 125  1      65.136346 15.439726 17.369692
 126  1      65.136346 46.319179 5.537890
 127  1      34.739384 54.039041 57.646965
 128  1      4.342423 0.000000 57.646965
 129  1      2.171209 39.885960 48.636547
 130  1      10.856058 19.299659 0.000000
 131  1      36.910598 16.726370 53.864658
 132  1      23.883326 6.433219 67.723186
 133  1      6.513635 1.286644 59.434633
 134  1      0.000000 48.892464 38.211916
 135  1      54.280292 6.433219 44.783520
 136  1      39.081807 18.013012 67.723186
 137  1      58.622710 50.179106 40.277271
 138  1      8.684845 61.758903 52.109075
 139  1      43.424230 48.892464 15.614110
 140  1      8.684845 51.465748 13.897159
 141  1      13.027272 46.319179 5.537890
 142  1      13.027272 59.185618 48.636547
 143  1      28.225749 50.179106 5.537890
 144  1      21.712115 5.146575 36.494968
 145  1      54.280288 29.592809 10.044134
 146  1      2.171209 37.312667 32.983801
 147  1      67.307559 39.885960 13.897159
 148  1      36.910594 14.153081 15.614110
 149  1      8.684846 15.439726 63.940882
 150  1      41.253020 19.299659 11.831802
 151  1      36.910598 3.859931 63.940882
 152  1      6.513635 1.286644 7.325558
 153  1      54.280288 1.286644 1.755583
 154  1      30.396962 66.905480 59.434633
 155  1      26.054537 25.732874 27.413828
 156  1      13.027272 48.892464 50.353495
 157  1      36.910598 34.739382 40.277271
 158  1      45.595443 19.299659 40.277271
 159  1      10.856054 65.618830 40.277271
 160  1      52.109079 46.319179 5.537890
 161  1      4.342419 43.745887 7.325558
 162  1      26.054537 20.586301 48.636547
 163  1      56.451501 38.599317 5.537890
 164  1      49.937861 37.312667 3.472532
 165  1      21.712109 51.465748 36.494968
 166  1      67.307559 52.752399 67.723186
 167  1      32.568173 11.579795 34.739384
 168  1      62.965133 27.019521 57.646965
 169  1      15.198481 60.472261 55.581606
 170  1      32.568173 55.325683 31.266851
 171  1      47.766652 51.465748 13.897159
 172  1      54.280288 42.459244 57.646965
 173  1      15.198481 3.859931 29.201494
 174  1      45.595443 63.045545 7.325558
 175  1      28.225749 11.579795 34.739384
 176  1      39.081807 33.452740 38.211916
 177  1      32.568171 57.898968 22.907583
 178  1      26.054535 54.039041 40.277271
 179  1      21.712117 59.185618 48.636547
 180  1      43.424230 10.293150 38.211916
 181  1      19.540907 37.312667 55.581606
 182  1      32.568171 50.179106 5.537890
 183  1      8.684846 0.000000 63.940882
 184  1      15.198489 29.592809 27.413828
 185  1      67.307559 37.312667 44.783520
 186  1      26.054535 56.612326 67.723186
 187  1      19.540907 65.618830 40.277271
 188  1      32.568171 50.179106 11.831802
 189  1      49.937865 39.885960 66.006237
 190  1      58.622710 63.045545 19.125275
 191  1      67.307559 50.179106 17.369692
 192  1      4.342426 41.172602 44.783520
 193  1      17.369692 30.879451 22.907583
 194  1      65.136342 12.866437 24.695248
 195  1      15.198481 57.898968 46.571188
 196  1      13.027272 56.612326 20.842226
 197  1      21.712115 28.306163 7.325558
 198  1      23.883326 37.312667 50.353495
 199  1      45.595439 65.618830 11.831802
 200  1      0.000000 20.586301 31.266851
 201  1      30.396962 46.319179 40.277271
 202  1      56.451501 54.039041 40.277271
 203  1      0.000000 46.319179 22.907583
 204  1      0.000000 38.599317 46.571188
 205  1      32.568171 21.872943 20.842226
 206  1      28.225753 55.325683 1.755583
 207  1      58.622714 3.859931 52.109075
 208  1      8.684845 41.172602 44.783520
 209  1      67.307552 34.739382 17.369692
 210  1      41.253020 42.459244 40.277271
 211  1      15.198481 16.726370 24.695248
 212  1      34.739384 15.439726 52.109075
 213  1      21.712115 23.159590 57.646965
 214  1      67.307559 47.605822 31.266851
 215  1      67.307559 50.179106 57.646965
 216  1      19.540903 32.166094 36.494968
 217  1      56.451501 0.000000 0.000000
 218  1      58.622710 55.325683 42.064943
 219  1      67.307559 6.433219 62.153211
 220  1      32.568173 47.605822 59.434633
 221  1      65.136350 41.172602 20.842226
 222  1      45.595439 65.618830 57.646965
 223  1      62.965137 29.592809 50.353495
 224  1      62.965133 42.459244 52.109075
 225  1      56.451497 28.306163 48.636547
 226  1      67.307559 37.312667 67.723186
 227  1      41.253016 34.739382 40.277271
 228  1      15.198481 65.618830 52.109075
 229  1      17.369692 18.013012 27.413828
 230  1      41.253020 14.153081 50.353495
 231  1      32.568175 16.726370 42.064943
 232  1      67.307559 21.872943 15.614110
 233  1      60.793924 38.599317 34.739384
 234  1      32.568173 42.459244 52.109075
 235  1      6.513636 37.312667 62.153211
 236  1      43.424230 20.586301 1.755583
 237  1      2.171209 39.885960 31.266851
 238  1      15.198481 19.299659 0.000000
 239  1      23.883326 21.872943 20.842226
 240  1      45.595439 45.032529 62.153211
 241  1      39.081807 66.905480 1.755583
 242  1      52.109075 20.586301 19.125275
 243  1      6.513636 63.045545 7.325558
 244  1      47.766652 20.586301 36.494968
 245  1      19.540903 32.166094 24.695248
 246  1      17.369692 18.013012 15.614110
 247  1      21.712117 56.612326 55.581606
 248  1      13.027264 61.758903 46.571188
 249  1      36.910598 60.472261 10.044134
 250  1      19.540903 19.299659 0.000000
 251  1      19.540903 24.446232 48.636547
 252  1      60.793920 43.745887 19.125275
 253  1      28.225753 57.898968 0.000000
 254  1      4.342426 66.905480 1.755583
 255  1      0.000000 28.306163 13.897159
 256  1      23.883326 52.752399 38.211916
 257  1      41.253020 6.433219 32.983801
 258  1      15.198481 42.459244 46.571188
 259  1      41.253020 32.166094 48.636547
 260  1      62.965137 6.433219 27.413828
 261  1      28.225749 42.459244 40.277271
 262  1      15.198480 9.006506 31.266851
 263  1      10.856057 1.286644 42.064943
 264  1      36.910594 21.872943 32.983801
 265  1      2.171209 68.192119 20.842226
 266  1      2.171209 42.459244 5.537890
 267  1      45.595443 3.859931 46.571188
 268  1      0.000000 48.892464 20.842226
 269  1      30.396960 10.293150 15.614110
 270  1      52.109075 56.612326 10.044134
 271  1      52.109079 38.599317 17.369692
 272  1      47.766652 23.159590 57.646965
 273  1      2.171209 50.179106 0.000000
 274  1      58.622714 14.153081 27.413828
 275  1      39.081807 48.892464 50.353495
 276  1      60.793924 59.185618 7.325558
 277  1      43.424230 56.612326 10.044134
 278  1      49.937869 14.153081 38.211916
 279  1      4.342419 36.026025 59.434633
 280  1      10.856062 42.459244 46.571188
 281  1      13.027272 46.319179 40.277271
 282  1      32.568171 50.179106 0.000000
 283  1      39.081807 18.013012 10.044134
 284  1      6.513636 21.872943 50.353495
 285  1      60.793920 12.866437 1.755583
 286  1      17.369690 54.039041 63.940882
 287  1      13.027270 23.159590 17.369692
 288  1      8.684845 51.465748 66.006237
 289  1      17.369692 20.586301 53.864658
 290  1      52.109075 43.745887 31.266851
 291  1      41.253020 19.299659 57.646965
 292  1      47.766652 23.159590 17.369692
 293  1      49.937865 24.446232 13.897159
 294  1      13.027272 41.172602 62.153211
 295  1      58.622710 27.019521 0.000000
 296  1      10.856054 34.739382 40.277271
 297  1      62.965137 11.579795 22.907583
 298  1      2.171212 1.286644 19.125275
 299  1      15.198481 3.859931 52.109075
 300  1      8.684846 2.573288 50.353495
 301  1      13.027270 0.000000 29.201494
 302  1      45.595443 1.286644 1.755583
 303  1      19.540907 52.752399 67.723186
 304  1      41.253020 68.192119 38.211916
 305  1      60.793924 7.719863 29.201494
 306  1      13.027272 59.185618 66.006237
 307  1      32.568173 19.299659 5.537890
 308  1      39.081807 28.306163 59.434633
 309  1      26.054539 23.159590 46.571188
 310  1      6.513636 60.472261 32.983801
 311  1      6.513634 6.433219 20.842226
 312  1      8.684846 7.719863 5.537890
 313  1      58.622710 16.726370 7.325558
 314  1      32.568173 1.286644 19.125275
 315  1      2.171209 39.885960 42.064943
 316  1      0.000000 51.465748 53.864658
 317  1      39.081807 38.599317 5.537890
 318  1      19.540900 63.045545 24.695248
 319  1      41.253020 14.153081 20.842226
 320  1      65.136342 30.879451 5.537890
 321  1      26.054539 5.146575 48.636547
 322  1      52.109079 46.319179 40.277271
 323  1      23.883326 55.325683 7.325558
 324  1      8.684845 51.465748 36.494968
 325  1      15.198481 60.472261 38.211916
 326  1      67.307552 16.726370 42.064943
 327  1      45.595443 3.859931 11.831802
 328  1      52.109075 66.905480 48.636547
 329  1      67.307552 16.726370 7.325558
 330  1      56.451501 25.732874 62.153211
 331  1      39.081807 28.306163 7.325558
 332  1      19.540903 3.859931 34.739384
 333  1      17.369690 59.185618 48.636547
 334  1      19.540907 37.312667 20.842226
 335  1      49.937865 42.459244 17.369692
 336  1      56.451501 59.185618 48.636547
 337  1      43.424230 54.039041 0.000000
 338  1      39.081807 23.159590 57.646965
 339  1      47.766652 18.013012 44.783520
 340  1      19.540907 65.618830 63.940882
 341  1      45.595443 68.192119 27.413828
 342  1      8.684845 43.745887 59.434633
 343  1      17.369690 66.905480 53.864658
 344  1      41.253020 52.752399 55.581606
 345  1      28.225753 55.325683 59.434633
 346  1      36.910594 63.045545 48.636547
 347  1      60.793924 48.892464 10.044134
 348  1      56.451497 61.758903 40.277271
 349  1      56.451497 28.306163 59.434633
 350  1      65.136346 18.013012 20.842226
 351  1      58.622710 63.045545 31.266851
 352  1      54.280292 6.433219 62.153211
 353  1      62.965133 39.885960 48.636547
 354  1      45.595443 57.898968 17.369692
 355  1      26.054537 25.732874 3.472532
 356  1      6.513634 3.859931 11.831802
 357  1      17.369690 43.745887 31.266851
 358  1      45.595443 52.752399 50.353495
 359  1      58.622714 29.592809 32.983801
 360  1      28.225749 14.153081 27.413828
 361  1      21.712117 48.892464 67.723186
 362  1      28.225749 34.739382 29.201494
 363  1      65.136346 54.039041 11.831802
 364  1      15.198481 27.019521 63.940882
 365  1      39.081807 64.332188 15.614110
 366  1      2.171209 60.472261 67.723186
 367  1      26.054543 48.892464 55.581606
 368  1      65.136346 61.758903 0.000000
 369  1      23.883328 1.286644 13.897159
 370  1      58.622710 50.179106 29.201494
 371  1      13.027270 23.159590 0.000000
 372  1      26.054535 64.332188 15.614110
 373  1      0.000000 7.719863 5.537890
 374  1      30.396962 38.599317 11.831802
 375  1      52.109075 43.745887 13.897159
 376  1      54.280288 32.166094 48.636547
 377  1      6.513636 29.592809 32.983801
 378  1      19.540903 27.019521 5.537890
 379  1      0.000008 2.573288 10.044134
 380  1      28.225751 47.605822 36.494968
 381  1      47.766652 46.319179 17.369692
 382  1      23.883326 29.592809 10.044134
 383  1      56.451497 15.439726 17.369692
 384  1      23.883326 14.153081 32.983801
 385  1      19.540903 6.433219 38.211916
 386  1      17.369690 66.905480 24.695248
 387  1      2.171209 14.153081 44.783520
 388  1      32.568173 11.579795 52.109075
 389  1      52.109075 15.439726 11.831802
 390  1      43.424230 66.905480 48.636547
 391  1      65.136342 30.879451 57.646965
 392  1      45.595443 42.459244 63.940882
 393  1      41.253020 6.433219 67.723186
 394  1      49.937865 3.859931 11.831802
 395  1      21.712115 15.439726 46.571188
 396  1      62.965137 6.433219 10.044134
 397  1      58.622710 9.006506 53.864658
 398  1      8.684845 30.879451 5.537890
 399  1      2.171209 19.299659 52.109075
 400  1      41.253020 3.859931 40.277271
 401  1      49.937865 24.446232 31.266851
 402  1      19.540903 29.592809 55.581606
 403  1      19.540907 57.898968 52.109075
 404  1      23.883326 24.446232 48.636547
 405  1      54.280288 57.898968 52.109075
 406  1      19.540903 24.446232 53.864658
 407  1      56.451497 61.758903 22.907583
 408  1      47.766652 43.745887 31.266851
 409  1      26.054537 33.452740 20.842226
 410  1      13.027270 0.000000 11.831802
 411  1      19.540907 39.885960 42.064943
 412  1      58.622710 19.299659 34.739384
 413  1      43.424230 12.866437 59.434633
 414  1      23.883326 55.325683 36.494968
 415  1      60.793920 51.465748 13.897159
 416  1      30.396962 59.185618 1.755583
 417  1      10.856054 37.312667 3.472532
 418  1      6.513634 3.859931 5.537890
 419  1      15.198480 14.153081 44.783520
 420  1      56.451501 59.185618 31.266851
 421  1      13.027270 20.586301 13.897159
 422  1      52.109075 15.439726 0.000000
 423  1      49.937865 34.739382 5.537890
 424  1      19.540903 16.726370 36.494968
 425  1      4.342426 25.732874 10.044134
 426  1      23.883326 24.446232 31.266851
 427  1      65.136346 54.039041 46.571188
 428  1      8.684846 12.866437 36.494968
 429  1      30.396960 2.573288 27.413828
 430  1      10.856054 47.605822 59.434633
 431  1      54.280288 60.472261 10.044134
 432  1      58.622714 3.859931 57.646965
 433  1      2.171209 32.166094 59.434633
 434  1      26.054537 28.306163 48.636547
 435  1      45.595439 37.312667 20.842226
 436  1      0.000000 5.146575 1.755583
 437  1      65.136346 56.612326 50.353495
 438  1      45.595439 37.312667 62.153211
 439  1      28.225751 39.885960 66.006237
 440  1      30.396962 61.758903 46.571188
 441  1      23.883326 11.579795 5.537890
 442  1      41.253020 1.286644 24.695248
 443  1      6.513636 55.325683 13.897159
 444  1      15.198480 1.286644 53.864658
 445  1      39.081807 30.879451 63.940882
 446  1      0.000000 61.758903 22.907583
 447  1      8.684846 15.439726 29.201494
 448  1      47.766652 61.758903 11.831802
 449  1      43.424230 51.465748 66.006237
 450  1      30.396960 2.573288 67.723186
 451  1      39.081807 54.039041 52.109075
 452  1      21.712117 56.612326 32.983801
 453  1      58.622710 39.885960 66.006237
 454  1      41.253020 60.472261 44.783520
 455  1      56.451497 48.892464 3.472532
 456  1      65.136346 25.732874 3.472532
 457  1      52.109075 43.745887 48.636547
 458  1      6.513628 32.166094 7.325558
 459  1      36.910594 57.898968 17.369692
 460  1      21.712115 28.306163 1.755583
 461  1      49.937869 6.433219 32.983801
 462  1      23.883326 24.446232 19.125275
 463  1      67.307552 24.446232 24.695248
 464  1      52.109075 30.879451 22.907583
 465  1      13.027270 23.159590 22.907583
 466  1      21.712115 2.573288 38.211916
 467  1      54.280288 9.006506 31.266851
 468  1      36.910598 11.579795 0.000000
 469  1      34.739384 20.586301 66.006237
 470  1      56.451501 10.293150 38.211916
 471  1      36.910594 32.166094 24.695248
 472  1      41.253020 63.045545 1.755583
 473  1      56.451497 56.612326 20.842226
 474  1      34.739384 10.293150 27.413828
 475  1      26.054537 10.293150 44.783520
 476  1      0.000000 28.306163 31.266851
 477  1      54.280284 45.032529 32.983801
 478  1      30.396962 56.612326 38.211916
 479  1      34.739384 33.452740 62.153211
 480  1      52.109079 59.185618 1.755583
 481  1      67.307552 16.726370 13.897159
 482  1      32.568175 16.726370 66.006237
 483  1      65.136346 66.905480 48.636547
 484  1      17.369692 7.719863 46.571188
 485  1      65.136346 56.612326 15.614110
 486  1      0.000000 7.719863 63.940882
 487  1      62.965137 3.859931 40.277271
 488  1      2.171209 65.618830 63.940882
 489  1      30.396962 66.905480 42.064943
 490  1      17.369692 23.159590 17.369692
 491  1      49.937865 68.192119 50.353495
 492  1      17.369692 23.159590 40.277271
 493  1      54.280288 60.472261 20.842226
 494  1      49.937865 68.192119 62.153211
 495  1      15.198481 27.019521 22.907583
 496  1      67.307552 24.446232 42.064943
 497  1      47.766652 61.758903 52.109075
 498  1      36.910598 52.752399 62.153211
 499  1      54.280288 63.045545 13.897159
 500  1      4.342426 12.866437 48.636547
 501  1      6.513636 60.472261 67.723186
 502  1      41.253020 50.179106 52.109075
 503  1      21.712117 48.892464 44.783520
 504  1      39.081807 36.026025 24.695248
 505  1      67.307559 11.579795 29.201494
 506  1      21.712109 51.465748 48.636547
 507  1      36.910594 21.872943 55.581606
 508  1      10.856062 29.592809 20.842226
 509  1      65.136346 59.185618 59.434633
 510  1      67.307559 47.605822 66.006237
 511  1      45.595443 52.752399 32.983801
 512  1      17.369690 59.185618 19.125275
 513  1      45.595443 14.153081 15.614110
 514  1      23.883326 21.872943 62.153211
 515  1      65.136346 59.185618 36.494968
 516  1      67.307559 60.472261 3.472532
 517  1      49.937865 1.286644 53.864658
 518  1      34.739384 51.465748 59.434633
 519  1      0.000000 48.892464 62.153211
 520  1      15.198481 3.859931 40.277271
 521  1      4.342419 46.319179 22.907583
 522  1      6.513636 29.592809 44.783520
 523  1      30.396960 51.465748 59.434633
 524  1      10.856062 50.179106 34.739384
 525  1      23.883326 60.472261 55.581606
 526  1      65.136346 15.439726 29.201494
 527  1      13.027270 23.159590 11.831802
 528  1      54.280288 34.739382 29.201494
 529  1      17.369690 64.332188 10.044134
 530  1      19.540907 50.179106 52.109075
 531  1      4.342419 61.758903 46.571188
 532  1      39.081807 23.159590 22.907583
 533  1      60.793924 54.039041 17.369692
 534  1      6.513636 34.739382 5.537890
 535  1      43.424230 36.026025 13.897159
 536  1      4.342426 18.013012 62.153211
 537  1      34.739384 20.586301 31.266851
 538  1      41.253020 27.019521 17.369692
 539  1      41.253020 24.446232 59.434633
 540  1      39.081807 5.146575 53.864658
 541  1      13.027272 38.599317 40.277271
 542  1      41.253020 52.752399 44.783520
 543  1      39.081807 0.000000 57.646965
 544  1      21.712117 41.172602 55.581606
 545  1      6.513635 1.286644 24.695248
 546  1      2.171209 9.006506 48.636547
 547  1      34.739384 36.026025 1.755583
 548  1      41.253020 47.605822 31.266851
 549  1      15.198481 19.299659 17.369692
 550  1      6.513636 39.885960 66.006237
 551  1      17.369692 30.879451 52.109075
 552  1      62.965133 60.472261 44.783520
 553  1      4.342419 54.039041 46.571188
 554  1      47.766652 46.319179 52.109075
 555  1      62.965133 34.739382 22.907583
 556  1      52.109075 28.306163 19.125275
 557  1      58.622710 19.299659 29.201494
 558  1      36.910598 47.605822 7.325558
 559  1      45.595443 16.726370 13.897159
 560  1      23.883326 57.898968 22.907583
 561  1      45.595443 47.605822 19.125275
 562  1      39.081807 41.172602 62.153211
 563  1      13.027270 2.573288 20.842226
 564  1      19.540903 21.872943 38.211916
 565  1      2.171209 47.605822 1.755583
 566  1      58.622710 57.898968 0.000000
 567  1      34.739384 2.573288 67.723186
 568  1      43.424230 56.612326 44.783520
 569  1      17.369690 38.599317 17.369692
 570  1      26.054539 38.599317 57.646965
 571  1      45.595443 9.006506 48.636547
 572  1      13.027272 48.892464 10.044134
 573  1      30.396960 10.293150 67.723186
 574  1      8.684845 66.905480 36.494968
 575  1      60.793924 46.319179 17.369692
 576  1      26.054537 7.719863 11.831802
 577  1      2.171209 55.325683 36.494968
 578  1      49.937865 55.325683 24.695248
 579  1      49.937861 45.032529 15.614110
 580  1      62.965137 19.299659 34.739384
 581  1      6.513636 16.726370 53.864658
 582  1      39.081807 66.905480 42.064943
 583  1      62.965133 34.739382 34.739384
 584  1      13.027272 54.039041 52.109075
 585  1      21.712117 38.599317 5.537890
 586  1      39.081807 46.319179 52.109075
 587  1      32.568171 21.872943 32.983801
 588  1      8.684845 25.732874 10.044134
 589  1      49.937865 16.726370 53.864658
 590  1      36.910598 16.726370 48.636547
 591  1      45.595443 47.605822 31.266851
 592  1      54.280288 50.179106 63.940882
 593  1      26.054535 54.039041 29.201494
 594  1      47.766652 23.159590 52.109075
 595  1      39.081807 36.026025 48.636547
 596  1      26.054539 38.599317 0.000000
 597  1      60.793928 33.452740 38.211916
 598  1      49.937865 27.019521 34.739384
 599  1      32.568173 3.859931 5.537890
 600  1      62.965133 55.325683 42.064943
 601  1      0.000000 56.612326 62.153211
 602  1      36.910594 27.019521 34.739384
 603  1      67.307559 60.472261 32.983801
 604  1      65.136342 36.026025 59.434633
 605  1      65.136346 38.599317 34.739384
 606  1      8.684845 28.306163 13.897159
 607  1      58.622710 19.299659 63.940882
 608  1      17.369692 5.146575 59.434633
 609  1      62.965137 19.299659 17.369692
 610  1      30.396962 0.000000 34.739384
 611  1      19.540903 14.153081 27.413828
 612  1      56.451501 25.732874 3.472532
 613  1      10.856054 27.019521 52.109075
 614  1      60.793924 7.719863 63.940882
 615  1      60.793920 43.745887 53.864658
 616  1      0.000000 5.146575 36.494968
 617  1      6.513636 27.019521 17.369692
 618  1      49.937865 11.579795 29.201494
 619  1      4.342423 2.573288 67.723186
 620  1      43.424230 36.026025 48.636547
 621  1      13.027272 30.879451 22.907583
 622  1      54.280288 34.739382 52.109075
 623  1      10.856057 1.286644 31.266851
 624  1      6.513635 11.579795 29.201494
 625  1      4.342423 5.146575 59.434633
 626  1      67.307552 32.166094 24.695248
 627  1      58.622710 68.192119 15.614110
 628  1      23.883326 68.192119 32.983801
 629  1      49.937861 45.032529 32.983801
 630  1      32.568173 39.885960 19.125275
 631  1      43.424230 48.892464 3.472532
 632  1      52.109075 28.306163 66.006237
 633  1      49.937865 29.592809 32.983801
 634  1      13.027269 10.293150 15.614110
 635  1      62.965133 45.032529 20.842226
 636  1      43.424230 64.332188 55.581606
 637  1      15.198480 21.872943 32.983801
 638  1      60.793924 66.905480 59.434633
 639  1      67.307552 9.006506 31.266851
 640  1      60.793920 56.612326 62.153211
 641  1      56.451501 38.599317 29.201494
 642  1      45.595443 60.472261 27.413828
 643  1      4.342426 30.879451 52.109075
 644  1      6.513636 68.192119 44.783520
 645  1      13.027270 2.573288 10.044134
 646  1      62.965137 14.153081 10.044134
 647  1      58.622710 47.605822 48.636547
 648  1      52.109075 41.172602 55.581606
 649  1      43.424230 30.879451 22.907583
 650  1      32.568173 3.859931 34.739384
 651  1      41.253020 16.726370 1.755583
 652  1      17.369692 18.013012 10.044134
 653  1      21.712115 25.732874 38.211916
 654  1      4.342419 61.758903 57.646965
 655  1      36.910598 52.752399 3.472532
 656  1      32.568173 47.605822 13.897159
 657  1      19.540903 1.286644 59.434633
 658  1      13.027264 43.745887 42.064943
 659  1      23.883326 45.032529 44.783520
 660  1      47.766652 66.905480 31.266851
 661  1      23.883326 52.752399 20.842226
 662  1      36.910598 16.726370 42.064943
 663  1      41.253020 11.579795 52.109075
 664  1      10.856062 29.592809 44.783520
 665  1      47.766652 20.586301 59.434633
 666  1      10.856054 32.166094 36.494968
 667  1      10.856054 57.898968 29.201494
 668  1      65.136350 41.172602 38.211916
 669  1      36.910598 55.325683 59.434633
 670  1      34.739384 12.866437 36.494968
 671  1      39.081807 33.452740 27.413828
 672  1      0.000000 15.439726 22.907583
 673  1      39.081807 46.319179 46.571188
 674  1      10.856062 52.752399 27.413828
 675  1      4.342426 41.172602 3.472532
 676  1      52.109075 23.159590 11.831802
 677  1      6.513636 42.459244 34.739384
 678  1      2.171209 45.032529 3.472532
 679  1      8.684845 43.745887 13.897159
 680  1      60.793924 25.732874 20.842226
 681  1      0.000000 12.866437 19.125275
 682  1      58.622710 52.752399 27.413828
 683  1      17.369690 36.026025 1.755583
 684  1      39.081807 7.719863 57.646965
 685  1      0.000000 33.452740 44.783520
 686  1      60.793924 18.013012 38.211916
 687  1      39.081807 43.745887 24.695248
 688  1      56.451497 64.332188 62.153211
 689  1      30.396962 5.146575 24.695248
 690  1      45.595443 42.459244 52.109075
 691  1      28.225751 19.299659 40.277271
 692  1      17.369692 0.000000 46.571188
 693  1      49.937865 60.472261 50.353495
 694  1      26.054537 18.013012 55.581606
 695  1      43.424230 15.439726 11.831802
 696  1      32.568173 34.739382 63.940882
 697  1      56.451497 48.892464 20.842226
 698  1      36.910594 27.019521 5.537890
 699  1      17.369690 61.758903 5.537890