# Converted from POSCAR to lammps format

3888 atoms
3 atom types

0.000000   51.750511   xlo xhi
0.000000   44.817257   ylo yhi
0.000000   52.462734   zlo zhi

  0.000000    0.000000    0.000000   xy xz yz

Atoms

   1  1      43.264355 19.998993 36.707249
   2  1      38.894718 7.516788 29.521933
   3  1      4.448154 24.976774 33.239708
   4  1      43.264359 27.468534 36.707249
   5  1      30.326729 12.529449 1.732093
   6  1      13.076558 5.059906 1.732093
   7  1      17.334021 29.926582 5.449341
   8  1      17.332001 22.455873 12.034356
   9  1      2.295200 8.794679 36.707249
  10  1      23.802834 26.191811 5.449341
  11  1      6.550648 18.721104 29.521933
  12  1      25.957087 14.986331 12.034356
  13  1      32.427917 33.661354 40.424496
  14  1      0.081831 0.047245 29.521933
  15  1      17.332001 7.516788 12.034356
  16  1      23.854599 13.772459 15.752130
  17  1      17.389101 27.468534 19.219671
  18  1      43.264355 5.059906 19.219671
  19  1      28.115376 33.661354 22.936918
  20  1      13.073243 2.568145 33.239708
  21  1      32.479687 43.650631 50.727287
  22  1      43.261040 32.446316 33.239708
  23  1      28.115377 26.191811 22.936918
  24  1      49.729855 43.650631 33.239708
  25  1      8.706917 14.986331 29.521933
  26  1      43.209274 14.987495 5.449341
  27  1      34.635956 2.568145 50.727287
  28  1      47.521820 7.517953 22.936918
  29  1      36.795544 16.264221 1.732093
  30  1      19.545372 16.264221 19.219671
  31  1      8.764015 19.998993 1.732093
  32  1      38.948498 24.976774 15.752130
  33  1      17.385786 17.507231 50.727287
  34  1      38.896732 14.987495 40.424496
  35  1      32.425900 26.190647 29.521933
  36  1      0.135616 32.446316 50.727287
  37  1      43.209274 29.926582 22.936918
  38  1      2.240124 18.722267 22.936918
  39  1      36.740463 11.252726 22.936918
  40  1      17.385788 32.446316 15.752130
  41  1      32.482998 31.203306 36.707249
  42  1      6.550648 41.129730 47.009514
  43  1      4.396392 7.517953 22.936918
  44  1      21.701643 5.059906 19.219671
  45  1      10.863188 18.721104 29.521933
  46  1      45.417313 21.242002 33.239708
  47  1      10.863186 41.129730 12.034356
  48  1      36.740459 3.783182 22.936918
  49  1      38.896732 37.396126 5.449341
  50  1      38.948498 24.976774 50.727287
  51  1      19.542061 36.181087 33.239708
  52  1      4.396392 0.048410 40.424496
  53  1      30.269630 14.986331 47.009514
  54  1      34.584190 7.517953 22.936918
  55  1      45.417313 36.181087 15.752130
  56  1      4.451473 34.938080 19.219671
  57  1      34.639271 5.059906 1.732093
  58  1      32.425903 3.782017 29.521933
  59  1      6.607746 38.672848 1.732093
  60  1      4.451469 12.529449 36.707249
  61  1      8.760700 32.446316 33.239708
  62  1      17.332001 14.986331 12.034356
  63  1      43.209274 37.396126 5.449341
  64  1      2.238103 3.782017 12.034356
  65  1      28.167143 21.242002 50.727287
  66  1      0.081833 7.516788 12.034356
  67  1      36.792229 43.650631 15.752130
  68  1      45.420628 31.203306 36.707249
  69  1      19.490290 33.661354 22.936918
  70  1      30.269630 14.986331 12.034356
  71  1      43.207256 29.925417 29.521933
  72  1      19.542057 13.772459 33.239708
  73  1      2.291885 36.181087 33.239708
  74  1      4.451473 34.938080 36.707249
  75  1      23.800816 26.190647 29.521933
  76  1      4.396392 7.517953 5.449341
  77  1      2.238102 26.190647 12.034356
  78  1      2.295200 31.203306 1.732093
  79  1      25.957087 29.925417 47.009514
  80  1      13.073242 39.915859 15.752130
  81  1      15.229515 36.181087 50.727287
  82  1      15.177749 26.191811 5.449341
  83  1      26.010870 10.037688 50.727287
  84  1      10.865206 11.252726 22.936918
  85  1      17.332001 14.986331 47.009514
  86  1      23.800816 33.660187 29.521933
  87  1      8.706916 0.047245 29.521933
  88  1      0.081829 22.455873 12.034356
  89  1      45.363529 26.190647 12.034356
  90  1      36.740459 18.722267 22.936918
  91  1      21.701645 42.407619 36.707249
  92  1      47.521820 29.926582 22.936918
  93  1      21.644545 37.394962 47.009514
  94  1      34.582176 0.047245 47.009514
  95  1      15.177750 41.130898 5.449341
  96  1      30.323414 32.446316 15.752130
  97  1      34.582172 37.394962 29.521933
  98  1      36.740463 41.130898 22.936918
  99  1      38.951813 12.529449 1.732093
 100  1      2.295200 8.794679 1.732093
 101  1      43.209274 14.987495 22.936918
 102  1      0.135612 17.507231 50.727287
 103  1      23.857916 1.325135 19.219671
 104  1      45.363529 33.660187 47.009514
 105  1      15.177750 33.661354 40.424496
 106  1      30.326729 27.468534 1.732093
 107  1      17.334019 22.457039 5.449341
 108  1      43.264359 34.938080 36.707249
 109  1      8.706917 14.986331 47.009514
 110  1      47.573582 39.915859 33.239708
 111  1      43.264355 42.407619 19.219671
 112  1      21.701643 12.529449 36.707249
 113  1      36.792229 36.181087 50.727287
 114  1      43.264355 5.059906 1.732093
 115  1      28.167141 28.711544 15.752130
 116  1      23.854599 21.242002 50.727287
 117  1      21.701643 12.529449 1.732093
 118  1      2.295200 23.733765 1.732093
 119  1      15.175730 3.782017 47.009514
 120  1      8.764015 12.529449 19.219671
 121  1      15.177750 33.661354 5.449341
 122  1      6.552666 18.722267 40.424496
 123  1      8.708939 29.926582 5.449341
 124  1      6.607744 1.325135 36.707249
 125  1      15.175735 41.129730 47.009514
 126  1      0.083851 14.987495 40.424496
 127  1      15.229515 13.772459 33.239708
 128  1      10.863186 41.129730 47.009514
 129  1      34.635956 39.915859 15.752130
 130  1      0.081833 7.516788 47.009514
 131  1      4.394375 14.986331 12.034356
 132  1      10.920287 16.264221 19.219671
 133  1      34.584190 29.926582 5.449341
 134  1      45.420628 23.733765 1.732093
 135  1      45.365547 11.252726 22.936918
 136  1      32.482998 23.733765 1.732093
 137  1      4.451473 19.998993 19.219671
 138  1      30.323414 17.507231 15.752130
 139  1      26.010870 24.976774 15.752130
 140  1      17.334021 7.517953 22.936918
 141  1      0.081831 0.047245 12.034356
 142  1      49.678089 33.661354 5.449341
 143  1      2.238106 18.721104 47.009514
 144  1      21.644545 0.047245 29.521933
 145  1      28.113359 26.190647 47.009514
 146  1      34.639271 19.998993 1.732093
 147  1      32.425900 26.190647 47.009514
 148  1      34.584190 37.396126 40.424496
 149  1      2.240121 3.783182 40.424496
 150  1      30.323414 2.568145 33.239708
 151  1      23.854599 43.650631 50.727287
 152  1      45.363529 26.190647 29.521933
 153  1      21.644545 0.047245 47.009514
 154  1      38.951813 12.529449 36.707249
 155  1      43.261040 17.507231 15.752130
 156  1      13.073243 17.507231 15.752130
 157  1      21.698328 17.507231 50.727287
 158  1      13.076557 12.529449 1.732093
 159  1      32.479687 43.650631 33.239708
 160  1      28.115377 18.722267 22.936918
 161  1      43.264359 34.938080 1.732093
 162  1      0.083851 29.926582 40.424496
 163  1      32.427917 33.661354 22.936918
 164  1      34.584190 7.517953 5.449341
 165  1      28.113358 33.660187 29.521933
 166  1      19.488272 3.782017 12.034356
 167  1      30.269630 29.925417 12.034356
 168  1      15.229515 28.711544 33.239708
 169  1      25.959105 0.048410 5.449341
 170  1      26.014187 27.468534 1.732093
 171  1      6.607746 38.672848 36.707249
 172  1      15.177750 41.130898 40.424496
 173  1      28.170456 16.264221 1.732093
 174  1      21.646563 29.926582 40.424496
 175  1      15.229515 43.650631 33.239708
 176  1      13.073244 10.037688 15.752130
 177  1      26.010870 24.976774 33.239708
 178  1      15.177750 3.783182 22.936918
 179  1      6.604431 36.181087 15.752130
 180  1      49.678093 11.252726 40.424496
 181  1      10.916972 13.772459 15.752130
 182  1      49.676071 11.251559 29.521933
 183  1      17.385780 39.915859 15.752130
 184  1      30.271647 22.457039 40.424496
 185  1      28.113359 26.190647 29.521933
 186  1      34.635956 39.915859 50.727287
 187  1      2.238102 11.251559 12.034356
 188  1      2.291889 28.711544 15.752130
 189  1      49.733170 31.203306 1.732093
 190  1      4.396393 37.396126 40.424496
 191  1      21.646563 0.048410 40.424496
 192  1      41.050987 18.721104 12.034356
 193  1      32.479683 28.711544 33.239708
 194  1      15.175730 3.782017 12.034356
 195  1      6.550644 33.660187 29.521933
 196  1      49.676071 18.721104 47.009514
 197  1      23.800816 33.660187 47.009514
 198  1      45.417313 43.650631 33.239708
 199  1      13.076561 42.407619 19.219671
 200  1      28.167143 21.242002 33.239708
 201  1      19.488274 33.660187 12.034356
 202  1      45.365543 33.661354 22.936918
 203  1      32.425903 3.782017 47.009514
 204  1      0.138927 12.529449 1.732093
 205  1      15.232830 23.733765 19.219671
 206  1      23.857914 38.672848 36.707249
 207  1      45.365547 26.191811 5.449341
 208  1      0.135616 32.446316 15.752130
 209  1      34.584190 7.517953 40.424496
 210  1      23.802834 3.783182 5.449341
 211  1      49.678089 3.783182 5.449341
 212  1      0.083851 37.396126 22.936918
 213  1      19.488272 11.251559 29.521933
 214  1      36.740459 18.722267 40.424496
 215  1      49.676071 3.782017 29.521933
 216  1      25.957088 37.394962 12.034356
 217  1      13.021477 22.457039 40.424496
 218  1      10.920284 23.733765 19.219671
 219  1      23.800816 3.782017 12.034356
 220  1      19.488274 33.660187 47.009514
 221  1      21.698328 17.507231 15.752130
 222  1      19.490292 11.252726 22.936918
 223  1      49.678089 33.661354 40.424496
 224  1      13.019459 7.516788 29.521933
 225  1      47.573582 39.915859 50.727287
 226  1      8.764015 42.407619 1.732093
 227  1      0.135616 2.568145 50.727287
 228  1      26.014185 12.529449 19.219671
 229  1      41.050987 18.721104 29.521933
 230  1      15.232829 16.264221 19.219671
 231  1      41.053005 41.130898 5.449341
 232  1      45.417313 6.302917 15.752130
 233  1      6.550644 33.660187 12.034356
 234  1      6.604430 6.302917 15.752130
 235  1      13.076557 12.529449 19.219671
 236  1      36.792225 21.242002 50.727287
 237  1      4.394375 22.455873 29.521933
 238  1      47.573582 2.568145 33.239708
 239  1      47.521816 14.987495 22.936918
 240  1      19.545372 1.325135 19.219671
 241  1      15.229514 21.242002 33.239708
 242  1      4.394375 14.986331 47.009514
 243  1      6.604427 21.242002 50.727287
 244  1      45.365547 11.252726 40.424496
 245  1      6.604427 28.711544 50.727287
 246  1      8.708939 29.926582 22.936918
 247  1      49.733173 38.672848 19.219671
 248  1      41.050987 26.190647 47.009514
 249  1      49.678089 41.130898 5.449341
 250  1      15.177749 18.722267 22.936918
 251  1      41.104771 36.181087 15.752130
 252  1      8.760704 39.915859 33.239708
 253  1      17.385786 17.507231 15.752130
 254  1      26.014185 42.407619 1.732093
 255  1      10.916972 6.302917 15.752130
 256  1      36.738445 18.721104 47.009514
 257  1      47.573586 17.507231 50.727287
 258  1      8.708935 37.396126 22.936918
 259  1      13.076558 5.059906 36.707249
 260  1      2.238106 41.129730 12.034356
 261  1      43.264359 27.468534 1.732093
 262  1      38.948498 17.507231 50.727287
 263  1      4.451473 27.468534 36.707249
 264  1      10.863187 3.782017 47.009514
 265  1      8.760701 10.037688 50.727287
 266  1      45.363529 33.660187 12.034356
 267  1      32.483002 8.794679 36.707249
 268  1      0.081833 37.394962 29.521933
 269  1      45.420628 8.794679 19.219671
 270  1      49.678089 26.191811 40.424496
 271  1      47.519798 14.986331 12.034356
 272  1      25.957087 22.455873 12.034356
 273  1      34.582176 0.047245 29.521933
 274  1      15.175735 41.129730 12.034356
 275  1      2.295200 16.264221 19.219671
 276  1      17.334023 37.396126 5.449341
 277  1      21.701643 34.938080 36.707249
 278  1      43.209278 0.048410 22.936918
 279  1      6.607742 16.264221 1.732093
 280  1      6.552666 26.191811 5.449341
 281  1      2.291885 13.772459 15.752130
 282  1      49.676075 26.190647 47.009514
 283  1      23.800816 3.782017 29.521933
 284  1      25.959105 14.987495 22.936918
 285  1      36.738445 26.190647 12.034356
 286  1      41.108086 23.733765 36.707249
 287  1      38.951813 5.059906 36.707249
 288  1      23.802834 11.252726 5.449341
 289  1      13.076561 34.938080 36.707249
 290  1      21.698328 2.568145 50.727287
 291  1      4.394371 29.925417 12.034356
 292  1      45.420628 16.264221 1.732093
 293  1      30.271648 37.396126 40.424496
 294  1      10.865206 11.252726 5.449341
 295  1      28.170456 16.264221 19.219671
 296  1      10.863190 26.190647 12.034356
 297  1      45.363529 41.129730 47.009514
 298  1      28.170458 31.203306 1.732093
 299  1      13.073242 24.976774 50.727287
 300  1      17.385786 24.976774 33.239708
 301  1      49.678089 26.191811 22.936918
 302  1      47.573582 10.037688 50.727287
 303  1      45.365547 26.191811 40.424496
 304  1      47.521820 7.517953 40.424496
 305  1      10.916977 43.650631 50.727287
 306  1      41.108086 38.672848 19.219671
 307  1      15.177750 3.783182 5.449341
 308  1      21.646563 7.517953 5.449341
 309  1      30.269629 7.516788 12.034356
 310  1      13.021477 37.396126 5.449341
 311  1      30.269630 0.047245 29.521933
 312  1      47.519802 29.925417 29.521933
 313  1      38.894714 14.986331 47.009514
 314  1      38.896732 37.396126 22.936918
 315  1      8.708935 7.517953 40.424496
 316  1      38.951813 27.468534 19.219671
 317  1      28.170458 31.203306 36.707249
 318  1      8.706917 29.925417 12.034356
 319  1      23.800814 11.251559 29.521933
 320  1      30.326731 5.059906 1.732093
 321  1      10.865208 33.661354 5.449341
 322  1      38.948502 2.568145 33.239708
 323  1      17.332003 29.925417 47.009514
 324  1      45.417316 13.772459 50.727287
 325  1      28.170460 1.325135 19.219671
 326  1      45.363533 18.721104 47.009514
 327  1      10.865206 18.722267 22.936918
 328  1      4.451473 5.059906 36.707249
 329  1      43.209274 37.396126 22.936918
 330  1      8.764015 34.938080 1.732093
 331  1      45.420628 31.203306 1.732093
 332  1      4.451473 27.468534 1.732093
 333  1      13.021477 7.517953 22.936918
 334  1      8.708935 22.457039 5.449341
 335  1      32.483002 16.264221 19.219671
 336  1      17.332001 37.394962 12.034356
 337  1      49.678089 41.130898 22.936918
 338  1      49.733170 8.794679 19.219671
 339  1      34.639271 34.938080 1.732093
 340  1      6.604431 43.650631 33.239708
 341  1      34.584190 0.048410 22.936918
 342  1      38.894714 14.986331 12.034356
 343  1      15.232829 16.264221 1.732093
 344  1      34.584190 14.987495 22.936918
 345  1      13.076558 19.998993 19.219671
 346  1      41.053005 26.191811 40.424496
 347  1      38.896732 37.396126 40.424496
 348  1      0.138931 27.468534 36.707249
 349  1      32.483002 38.672848 36.707249
 350  1      19.545372 31.203306 19.219671
 351  1      47.521816 37.396126 22.936918
 352  1      41.053001 3.783182 22.936918
 353  1      6.607742 23.733765 1.732093
 354  1      17.385786 2.568145 50.727287
 355  1      30.326729 34.938080 19.219671
 356  1      23.854599 6.302917 33.239708
 357  1      23.857914 8.794679 36.707249
 358  1      30.326729 34.938080 1.732093
 359  1      8.764015 34.938080 19.219671
 360  1      23.802834 33.661354 5.449341
 361  1      26.010870 10.037688 33.239708
 362  1      6.550648 41.129730 12.034356
 363  1      36.795540 31.203306 36.707249
 364  1      23.800816 18.721104 47.009514
 365  1      28.113359 26.190647 12.034356
 366  1      19.488274 41.129730 47.009514
 367  1      43.207260 14.986331 47.009514
 368  1      17.389099 34.938080 1.732093
 369  1      15.232829 1.325135 36.707249
 370  1      47.519802 7.516788 29.521933
 371  1      26.014187 5.059906 19.219671
 372  1      23.857914 16.264221 19.219671
 373  1      49.676071 33.660187 12.034356
 374  1      4.448158 39.915859 15.752130
 375  1      34.635956 32.446316 50.727287
 376  1      36.740463 11.252726 5.449341
 377  1      26.014187 27.468534 36.707249
 378  1      21.646563 29.926582 5.449341
 379  1      28.115377 18.722267 40.424496
 380  1      38.951817 19.998993 1.732093
 381  1      4.394374 7.516788 12.034356
 382  1      34.582172 7.516788 47.009514
 383  1      8.764015 19.998993 36.707249
 384  1      43.209278 0.048410 5.449341
 385  1      17.334023 37.396126 22.936918
 386  1      17.385788 32.446316 50.727287
 387  1      30.271647 7.517953 22.936918
 388  1      43.264355 12.529449 36.707249
 389  1      8.708939 29.926582 40.424496
 390  1      45.365543 33.661354 5.449341
 391  1      45.420628 23.733765 36.707249
 392  1      34.635956 24.976774 33.239708
 393  1      26.014185 42.407619 19.219671
 394  1      4.451473 42.407619 1.732093
 395  1      10.916969 36.181087 15.752130
 396  1      0.138931 19.998993 36.707249
 397  1      21.646563 0.048410 22.936918
 398  1      6.604431 13.772459 15.752130
 399  1      32.427921 26.191811 22.936918
 400  1      45.365547 26.191811 22.936918
 401  1      49.733170 23.733765 1.732093
 402  1      41.104774 6.302917 33.239708
 403  1      47.521816 37.396126 40.424496
 404  1      36.792225 28.711544 50.727287
 405  1      10.916977 43.650631 15.752130
 406  1      2.238106 18.721104 29.521933
 407  1      43.209274 29.926582 40.424496
 408  1      15.229515 36.181087 33.239708
 409  1      6.552662 33.661354 5.449341
 410  1      38.896732 29.926582 5.449341
 411  1      8.708934 14.987495 5.449341
 412  1      0.081829 22.455873 29.521933
 413  1      38.948498 17.507231 33.239708
 414  1      6.550648 41.129730 29.521933
 415  1      47.576900 19.998993 36.707249
 416  1      8.764015 42.407619 19.219671
 417  1      19.490295 41.130898 22.936918
 418  1      4.451473 42.407619 19.219671
 419  1      45.363533 18.721104 12.034356
 420  1      36.795540 8.794679 36.707249
 421  1      19.545372 1.325135 36.707249
 422  1      13.073242 24.976774 33.239708
 423  1      34.584190 0.048410 40.424496
 424  1      8.760701 2.568145 50.727287
 425  1      2.295200 16.264221 1.732093
 426  1      26.014187 5.059906 36.707249
 427  1      47.519798 14.986331 47.009514
 428  1      2.240124 11.252726 5.449341
 429  1      10.865204 41.130898 5.449341
 430  1      47.573582 24.976774 50.727287
 431  1      19.490292 26.191811 5.449341
 432  1      32.479687 6.302917 50.727287
 433  1      4.451469 12.529449 1.732093
 434  1      47.576900 34.938080 36.707249
 435  1      25.959105 22.457039 5.449341
 436  1      32.479687 6.302917 15.752130
 437  1      13.019459 7.516788 12.034356
 438  1      8.760700 17.507231 33.239708
 439  1      41.053005 11.252726 22.936918
 440  1      45.363529 41.129730 12.034356
 441  1      17.385786 2.568145 15.752130
 442  1      21.698326 39.915859 50.727287
 443  1      43.209278 0.048410 40.424496
 444  1      15.232829 1.325135 19.219671
 445  1      49.676071 11.251559 12.034356
 446  1      10.916972 6.302917 33.239708
 447  1      13.073244 10.037688 50.727287
 448  1      30.323414 17.507231 50.727287
 449  1      26.014187 34.938080 36.707249
 450  1      19.545372 8.794679 19.219671
 451  1      43.209274 29.926582 5.449341
 452  1      8.764015 5.059906 36.707249
 453  1      23.857914 31.203306 36.707249
 454  1      2.240120 33.661354 40.424496
 455  1      47.519802 22.455873 47.009514
 456  1      4.394375 22.455873 12.034356
 457  1      17.334019 14.987495 22.936918
 458  1      45.363525 11.251559 29.521933
 459  1      0.083847 22.457039 40.424496
 460  1      23.857916 23.733765 1.732093
 461  1      49.729855 28.711544 50.727287
 462  1      43.261040 24.976774 50.727287
 463  1      19.542057 21.242002 50.727287
 464  1      28.167141 13.772459 15.752130
 465  1      2.240120 26.191811 40.424496
 466  1      4.448158 2.568145 33.239708
 467  1      49.678093 11.252726 5.449341
 468  1      21.646561 22.457039 5.449341
 469  1      34.582172 37.394962 12.034356
 470  1      25.957087 0.047245 47.009514
 471  1      49.729858 21.242002 15.752130
 472  1      49.733170 1.325135 19.219671
 473  1      49.733170 23.733765 36.707249
 474  1      30.326727 42.407619 1.732093
 475  1      21.698328 10.037688 15.752130
 476  1      41.050987 33.660187 12.034356
 477  1      38.951813 5.059906 19.219671
 478  1      41.050987 26.190647 29.521933
 479  1      30.271647 22.457039 22.936918
 480  1      6.604430 6.302917 50.727287
 481  1      6.604427 28.711544 33.239708
 482  1      41.108086 31.203306 36.707249
 483  1      19.490292 26.191811 22.936918
 484  1      23.802834 26.191811 22.936918
 485  1      2.238102 26.190647 47.009514
 486  1      38.894714 22.455873 29.521933
 487  1      13.019459 0.047245 29.521933
 488  1      23.854599 28.711544 33.239708
 489  1      45.363525 11.251559 12.034356
 490  1      17.334021 29.926582 40.424496
 491  1      17.389101 19.998993 19.219671
 492  1      19.542057 21.242002 33.239708
 493  1      49.733173 38.672848 1.732093
 494  1      28.115377 26.191811 5.449341
 495  1      21.644545 29.925417 29.521933
 496  1      0.138931 42.407619 1.732093
 497  1      36.795544 16.264221 19.219671
 498  1      4.394374 0.047245 47.009514
 499  1      45.365547 18.722267 22.936918
 500  1      2.291889 28.711544 50.727287
 501  1      30.323414 2.568145 50.727287
 502  1      28.170456 38.672848 19.219671
 503  1      17.389099 34.938080 19.219671
 504  1      32.483002 8.794679 19.219671
 505  1      28.170458 23.733765 1.732093
 506  1      6.607742 16.264221 36.707249
 507  1      47.519802 22.455873 12.034356
 508  1      38.896732 7.517953 40.424496
 509  1      45.363529 3.782017 12.034356
 510  1      21.646561 22.457039 40.424496
 511  1      38.894714 37.394962 29.521933
 512  1      30.271648 37.396126 22.936918
 513  1      41.053005 18.722267 40.424496
 514  1      36.740459 33.661354 40.424496
 515  1      2.240120 41.130898 22.936918
 516  1      36.738441 33.660187 12.034356
 517  1      4.396393 22.457039 5.449341
 518  1      15.175732 26.190647 29.521933
 519  1      2.240120 41.130898 40.424496
 520  1      21.644545 29.925417 47.009514
 521  1      4.448158 39.915859 33.239708
 522  1      47.521816 37.396126 5.449341
 523  1      10.863187 3.782017 12.034356
 524  1      4.448154 17.507231 15.752130
 525  1      6.607742 23.733765 19.219671
 526  1      17.385786 17.507231 33.239708
 527  1      10.865204 41.130898 22.936918
 528  1      47.573586 17.507231 33.239708
 529  1      21.644545 14.986331 29.521933
 530  1      45.417313 6.302917 50.727287
 531  1      23.800816 41.129730 29.521933
 532  1      30.323414 39.915859 50.727287
 533  1      49.678093 11.252726 22.936918
 534  1      47.576897 5.059906 19.219671
 535  1      8.706917 37.394962 47.009514
 536  1      13.019463 37.394962 29.521933
 537  1      32.479687 6.302917 33.239708
 538  1      28.115377 26.191811 40.424496
 539  1      19.542057 21.242002 15.752130
 540  1      38.948502 2.568145 15.752130
 541  1      6.552663 11.252726 22.936918
 542  1      41.053001 3.783182 5.449341
 543  1      49.729855 36.181087 15.752130
 544  1      38.896732 0.048410 5.449341
 545  1      26.014187 34.938080 1.732093
 546  1      10.863190 33.660187 12.034356
 547  1      0.081833 29.925417 12.034356
 548  1      15.229514 21.242002 15.752130
 549  1      2.291885 13.772459 50.727287
 550  1      47.521820 0.048410 40.424496
 551  1      36.792229 43.650631 50.727287
 552  1      49.733170 16.264221 1.732093
 553  1      4.396393 14.987495 22.936918
 554  1      43.207256 22.455873 12.034356
 555  1      34.582172 14.986331 12.034356
 556  1      41.053001 33.661354 5.449341
 557  1      17.334019 22.457039 40.424496
 558  1      26.014185 12.529449 1.732093
 559  1      26.014185 42.407619 36.707249
 560  1      43.207260 14.986331 29.521933
 561  1      30.326729 27.468534 36.707249
 562  1      45.420628 1.325135 19.219671
 563  1      0.135612 10.037688 50.727287
 564  1      28.167143 21.242002 15.752130
 565  1      8.706917 14.986331 12.034356
 566  1      21.701643 34.938080 1.732093
 567  1      19.545372 16.264221 1.732093
 568  1      19.542053 43.650631 15.752130
 569  1      32.425903 18.721104 47.009514
 570  1      8.706917 22.455873 29.521933
 571  1      36.795544 1.325135 1.732093
 572  1      41.050987 11.251559 47.009514
 573  1      43.209274 7.517953 40.424496
 574  1      2.295200 16.264221 36.707249
 575  1      45.363529 26.190647 47.009514
 576  1      32.425900 41.129730 47.009514
 577  1      19.490292 3.783182 22.936918
 578  1      45.363529 33.660187 29.521933
 579  1      0.081833 37.394962 47.009514
 580  1      38.896732 0.048410 22.936918
 581  1      19.545372 31.203306 1.732093
 582  1      4.396393 37.396126 5.449341
 583  1      36.795544 38.672848 19.219671
 584  1      2.295200 23.733765 19.219671
 585  1      8.764015 42.407619 36.707249
 586  1      0.083851 7.517953 40.424496
 587  1      0.083849 0.048410 40.424496
 588  1      47.519802 7.516788 12.034356
 589  1      26.010870 39.915859 15.752130
 590  1      34.584190 22.457039 40.424496
 591  1      4.448154 17.507231 33.239708
 592  1      2.238102 26.190647 29.521933
 593  1      49.729858 21.242002 50.727287
 594  1      32.479683 21.242002 50.727287
 595  1      10.865206 11.252726 40.424496
 596  1      13.073243 17.507231 33.239708
 597  1      36.792225 28.711544 33.239708
 598  1      38.894714 29.925417 29.521933
 599  1      32.425900 11.251559 12.034356
 600  1      0.138931 34.938080 36.707249
 601  1      45.365547 18.722267 5.449341
 602  1      32.427917 41.130898 5.449341
 603  1      23.854599 21.242002 33.239708
 604  1      13.021477 14.987495 5.449341
 605  1      21.698330 32.446316 50.727287
 606  1      17.389101 5.059906 36.707249
 607  1      38.896732 22.457039 5.449341
 608  1      45.363529 3.782017 29.521933
 609  1      47.573582 24.976774 33.239708
 610  1      41.104771 43.650631 33.239708
 611  1      2.291885 36.181087 15.752130
 612  1      0.138931 19.998993 1.732093
 613  1      21.644545 14.986331 47.009514
 614  1      10.920284 31.203306 1.732093
 615  1      26.014185 19.998993 1.732093
 616  1      2.295200 38.672848 1.732093
 617  1      0.081833 14.986331 47.009514
 618  1      32.479683 36.181087 33.239708
 619  1      2.238103 3.782017 29.521933
 620  1      23.800816 33.660187 12.034356
 621  1      23.857916 23.733765 36.707249
 622  1      41.104771 13.772459 33.239708
 623  1      38.951813 34.938080 19.219671
 624  1      43.261040 24.976774 15.752130
 625  1      38.951813 34.938080 36.707249
 626  1      23.857914 31.203306 19.219671
 627  1      36.738445 18.721104 29.521933
 628  1      45.365547 3.783182 22.936918
 629  1      0.138931 34.938080 19.219671
 630  1      23.854599 28.711544 50.727287
 631  1      4.451473 19.998993 36.707249
 632  1      6.552666 18.722267 5.449341
 633  1      13.076561 34.938080 19.219671
 634  1      34.635956 10.037688 50.727287
 635  1      23.802834 33.661354 40.424496
 636  1      15.175732 26.190647 12.034356
 637  1      6.550645 11.251559 12.034356
 638  1      32.479683 28.711544 50.727287
 639  1      6.552663 3.783182 40.424496
 640  1      45.417313 43.650631 50.727287
 641  1      0.083851 7.517953 22.936918
 642  1      21.701643 5.059906 36.707249
 643  1      34.639271 5.059906 36.707249
 644  1      43.261040 2.568145 50.727287
 645  1      15.175731 18.721104 29.521933
 646  1      41.108086 1.325135 1.732093
 647  1      4.394374 0.047245 29.521933
 648  1      0.081831 0.047245 47.009514
 649  1      25.959105 0.048410 22.936918
 650  1      17.385788 32.446316 33.239708
 651  1      23.854599 13.772459 50.727287
 652  1      34.635956 2.568145 33.239708
 653  1      10.865208 26.191811 5.449341
 654  1      0.081833 14.986331 29.521933
 655  1      4.396392 0.048410 5.449341
 656  1      36.740459 3.783182 40.424496
 657  1      43.209274 7.517953 22.936918
 658  1      36.738445 11.251559 47.009514
 659  1      21.646561 22.457039 22.936918
 660  1      2.240121 3.783182 22.936918
 661  1      41.050987 26.190647 12.034356
 662  1      41.104774 6.302917 15.752130
 663  1      19.488274 18.721104 29.521933
 664  1      25.957087 29.925417 29.521933
 665  1      0.083851 14.987495 22.936918
 666  1      45.365547 41.130898 22.936918
 667  1      25.959105 22.457039 22.936918
 668  1      36.740463 41.130898 40.424496
 669  1      38.951813 42.407619 19.219671
 670  1      38.894714 29.925417 12.034356
 671  1      38.894714 0.047245 29.521933
 672  1      8.708934 14.987495 22.936918
 673  1      38.896732 7.517953 22.936918
 674  1      8.708935 37.396126 5.449341
 675  1      17.332001 37.394962 29.521933
 676  1      6.607744 1.325135 1.732093
 677  1      28.115376 41.130898 22.936918
 678  1      2.295200 31.203306 19.219671
 679  1      21.644545 29.925417 12.034356
 680  1      28.113359 41.129730 47.009514
 681  1      19.545372 23.733765 1.732093
 682  1      2.291889 43.650631 15.752130
 683  1      36.792229 6.302917 15.752130
 684  1      32.483002 38.672848 19.219671
 685  1      19.542057 6.302917 50.727287
 686  1      10.865208 33.661354 22.936918
 687  1      23.800816 3.782017 47.009514
 688  1      13.021478 0.048410 22.936918
 689  1      34.584190 14.987495 5.449341
 690  1      38.894718 7.516788 47.009514
 691  1      36.740463 26.191811 5.449341
 692  1      13.073244 10.037688 33.239708
 693  1      32.427917 3.783182 22.936918
 694  1      30.323412 10.037688 50.727287
 695  1      47.573586 32.446316 50.727287
 696  1      23.854599 13.772459 33.239708
 697  1      28.113359 41.129730 29.521933
 698  1      19.490292 18.722267 5.449341
 699  1      10.863190 26.190647 47.009514
 700  1      8.760701 2.568145 33.239708
 701  1      26.010870 10.037688 15.752130
 702  1      10.920286 8.794679 36.707249