# Converted from POSCAR to lammps format

31104 atoms
3 atom types

0.000000  103.501022   xlo xhi
0.000000   89.634515   ylo yhi
0.000000  104.925468   zlo zhi

  0.000000    0.000000    0.000000   xy xz yz

Atoms

   1  1      2.295202 1.325135 1.732093
   2  1      47.573582 47.385403 50.727287
   3  1      45.420624 46.142391 36.707249
   4  1      82.073929 17.507231 103.190018
   5  1      79.920967 16.264221 89.169983
   6  1      62.670799 1.325135 89.169983
   7  1      13.076561 42.407619 89.169983
   8  1      15.229515 43.650631 103.190018
   9  1      45.417313 6.302917 50.727287
  10  1      47.573582 47.385403 33.239708
  11  1      45.420624 46.142391 19.219671
  12  1      64.823753 2.568145 103.190018
  13  1      28.167145 88.467888 33.239708
  14  1      26.014191 87.224876 19.219671
  15  1      43.264355 5.059906 54.194828
  16  1      47.573582 47.385403 15.752130
  17  1      45.420624 46.142391 1.732093
  18  1      45.417313 6.302917 68.214859
  19  1      15.232826 46.142391 1.732093
  20  1      17.385780 47.385403 15.752130
  21  1      45.417313 43.650631 103.190018
  22  1      43.264355 42.407619 89.169983
  23  1      43.264355 5.059906 71.682404
  24  1      45.417313 6.302917 85.702438
  25  1      64.827072 5.059906 1.732093
  26  1      28.167145 88.467888 15.752130
  27  1      45.417313 43.650631 85.702438
  28  1      43.264355 42.407619 71.682404
  29  1      43.264355 5.059906 36.707249
  30  1      66.980026 6.302917 15.752130
  31  1      86.389778 57.346706 19.219671
  32  1      15.229515 43.650631 85.702438
  33  1      26.014191 87.224876 54.194828
  34  1      13.076561 42.407619 36.707249
  35  1      15.229515 43.650631 50.727287
  36  1      41.108086 1.325135 89.169983
  37  1      43.261040 2.568145 103.190018
  38  1      49.729855 51.120174 15.752130
  39  1      47.576897 49.877163 1.732093
  40  1      82.077240 19.998993 1.732093
  41  1      17.389099 87.224876 54.194828
  42  1      19.542061 88.467888 68.214859
  43  1      43.264355 5.059906 1.732093
  44  1      45.417313 6.302917 15.752130
  45  1      47.573582 47.385403 103.190018
  46  1      45.420624 46.142391 89.169983
  47  1      13.076561 42.407619 54.194828
  48  1      15.229515 43.650631 68.214859
  49  1      62.670799 1.325135 71.682404
  50  1      28.167145 88.467888 50.727287
  51  1      26.014191 87.224876 36.707249
  52  1      47.573582 47.385403 85.702438
  53  1      45.420624 46.142391 71.682404
  54  1      64.823753 2.568145 85.702438
  55  1      43.264355 5.059906 19.219671
  56  1      45.417313 6.302917 33.239708
  57  1      13.076561 42.407619 71.682404
  58  1      47.573582 47.385403 68.214859
  59  1      45.420624 46.142391 54.194828
  60  1      88.542740 58.589718 33.239708
  61  1      15.232826 46.142391 19.219671
  62  1      17.385780 47.385403 33.239708
  63  1      26.014191 87.224876 1.732093
  64  1      26.010864 84.733116 85.702438
  65  1      23.857910 83.490105 71.682404
  66  1      43.261040 39.915859 85.702438
  67  1      41.108086 38.672848 71.682404
  68  1      45.420628 8.794679 36.707249
  69  1      47.573582 10.037688 50.727287
  70  1      64.827072 5.059906 36.707249
  71  1      66.980026 6.302917 50.727287
  72  1      86.386467 54.854942 103.190018
  73  1      43.261040 39.915859 68.214859
  74  1      41.108086 38.672848 54.194828
  75  1      84.233513 53.611938 89.169983
  76  1      15.232826 46.142391 89.169983
  77  1      17.385780 47.385403 103.190018
  78  1      45.420628 8.794679 54.194828
  79  1      47.573582 10.037688 68.214859
  80  1      43.261040 39.915859 50.727287
  81  1      41.108086 38.672848 36.707249
  82  1      82.073929 17.507231 68.214859
  83  1      79.920967 16.264221 54.194828
  84  1      26.010864 84.733116 68.214859
  85  1      23.857910 83.490105 54.194828
  86  1      43.261040 39.915859 33.239708
  87  1      41.108086 38.672848 19.219671
  88  1      45.420628 8.794679 71.682404
  89  1      17.389099 49.877163 1.732093
  90  1      19.542053 51.120174 15.752130
  91  1      17.385780 47.385403 85.702438
  92  1      15.232826 46.142391 71.682404
  93  1      41.108086 38.672848 89.169983
  94  1      43.261040 39.915859 103.190018
  95  1      88.542740 58.589718 15.752130
  96  1      86.389778 57.346706 1.732093
  97  1      45.417313 43.650631 68.214859
  98  1      43.264355 42.407619 54.194828
  99  1      43.264355 5.059906 89.169983
 100  1      45.417313 6.302917 103.190018
 101  1      82.073929 17.507231 85.702438
 102  1      45.417313 43.650631 50.727287
 103  1      43.264355 42.407619 36.707249
 104  1      15.232826 46.142391 36.707249
 105  1      17.385780 47.385403 50.727287
 106  1      26.010864 84.733116 103.190018
 107  1      45.420628 8.794679 1.732093
 108  1      47.576897 49.877163 19.219671
 109  1      79.920967 16.264221 71.682404
 110  1      45.417313 43.650631 33.239708
 111  1      43.264355 42.407619 19.219671
 112  1      64.827072 5.059906 19.219671
 113  1      66.980026 6.302917 33.239708
 114  1      23.857910 83.490105 89.169983
 115  1      15.232826 46.142391 54.194828
 116  1      17.389099 87.224876 71.682404
 117  1      19.542061 88.467888 85.702438
 118  1      45.417313 43.650631 15.752130
 119  1      43.264355 42.407619 1.732093
 120  1      17.385780 47.385403 68.214859
 121  1      45.420628 8.794679 19.219671
 122  1      47.573582 10.037688 33.239708
 123  1      47.573582 10.037688 15.752130
 124  1      47.573582 10.037688 85.702438
 125  1      49.729855 51.120174 33.239708
 126  1      64.823753 2.568145 68.214859
 127  1      10.920288 38.672848 1.732093
 128  1      54.042397 58.589718 68.214859
 129  1      51.889439 57.346706 54.194828
 130  1      13.073242 39.915859 15.752130
 131  1      4.451477 87.224876 89.169983
 132  1      6.604431 88.467888 103.190018
 133  1      86.389786 87.224876 54.194828
 134  1      54.042397 58.589718 50.727287
 135  1      51.889439 57.346706 36.707249
 136  1      88.542740 88.467888 68.214859
 137  1      10.920288 38.672848 19.219671
 138  1      13.073242 39.915859 33.239708
 139  1      54.042397 58.589718 33.239708
 140  1      51.889439 57.346706 19.219671
 141  1      86.386467 2.568145 33.239708
 142  1      84.233513 1.325135 19.219671
 143  1      84.230202 21.242002 50.727287
 144  1      82.077240 19.998993 36.707249
 145  1      88.542740 58.589718 85.702438
 146  1      86.389786 87.224876 71.682404
 147  1      88.542740 88.467888 85.702438
 148  1      54.042397 58.589718 15.752130
 149  1      51.889439 57.346706 1.732093
 150  1      62.670799 1.325135 1.732093
 151  1      10.920288 38.672848 36.707249
 152  1      13.073242 39.915859 50.727287
 153  1      86.389778 57.346706 71.682404
 154  1      88.542740 88.467888 50.727287
 155  1      51.886124 54.854942 103.190018
 156  1      86.389786 87.224876 36.707249
 157  1      51.889439 57.346706 71.682404
 158  1      54.045712 61.081478 36.707249
 159  1      86.386467 2.568145 68.214859
 160  1      86.389786 87.224876 1.732093
 161  1      84.230202 21.242002 68.214859
 162  1      88.542740 88.467888 15.752130
 163  1      56.198669 62.324490 33.239708
 164  1      54.045712 61.081478 19.219671
 165  1      82.077240 19.998993 54.194828
 166  1      8.764015 34.938080 71.682404
 167  1      10.916969 36.181087 85.702438
 168  1      84.233513 1.325135 54.194828
 169  1      88.542740 58.589718 103.190018
 170  1      56.198669 62.324490 15.752130
 171  1      54.045712 61.081478 1.732093
 172  1      86.389778 57.346706 89.169983
 173  1      4.451477 87.224876 71.682404
 174  1      6.604431 88.467888 85.702438
 175  1      17.389099 87.224876 19.219671
 176  1      86.389786 87.224876 19.219671
 177  1      88.542740 88.467888 33.239708
 178  1      54.042397 58.589718 103.190018
 179  1      51.889439 57.346706 89.169983
 180  1      8.764015 34.938080 89.169983
 181  1      10.916969 36.181087 103.190018
 182  1      19.542061 88.467888 33.239708
 183  1      86.386467 2.568145 50.727287
 184  1      54.042397 58.589718 85.702438
 185  1      84.233513 1.325135 36.707249
 186  1      49.733170 53.611938 89.169983
 187  1      86.389786 87.224876 89.169983
 188  1      64.823753 2.568145 15.752130
 189  1      13.073242 39.915859 103.190018
 190  1      41.108086 1.325135 36.707249
 191  1      43.261040 2.568145 50.727287
 192  1      49.729855 51.120174 103.190018
 193  1      47.576897 49.877163 89.169983
 194  1      62.670799 1.325135 36.707249
 195  1      64.823753 2.568145 50.727287
 196  1      13.076561 42.407619 1.732093
 197  1      15.229515 43.650631 15.752130
 198  1      28.167145 88.467888 85.702438
 199  1      49.729855 51.120174 85.702438
 200  1      47.576897 49.877163 71.682404
 201  1      41.108086 1.325135 54.194828
 202  1      43.261040 2.568145 68.214859
 203  1      26.014191 87.224876 71.682404
 204  1      49.729855 51.120174 68.214859
 205  1      47.576897 49.877163 54.194828
 206  1      88.542740 58.589718 50.727287
 207  1      41.108086 1.325135 71.682404
 208  1      13.076561 42.407619 19.219671
 209  1      15.229515 43.650631 33.239708
 210  1      43.261040 2.568145 85.702438
 211  1      49.729855 51.120174 50.727287
 212  1      47.576897 49.877163 36.707249
 213  1      86.389778 57.346706 36.707249
 214  1      84.230202 21.242002 15.752130
 215  1      62.670799 1.325135 54.194828
 216  1      49.733170 53.611938 1.732093
 217  1      51.886124 54.854942 15.752130
 218  1      19.542061 88.467888 50.727287
 219  1      86.389778 57.346706 54.194828
 220  1      88.542740 88.467888 103.190018
 221  1      86.386467 2.568145 15.752130
 222  1      51.886124 54.854942 85.702438
 223  1      49.733170 53.611938 71.682404
 224  1      84.233513 1.325135 1.732093
 225  1      10.920288 38.672848 54.194828
 226  1      13.073242 39.915859 68.214859
 227  1      17.389099 87.224876 36.707249
 228  1      41.108086 1.325135 1.732093
 229  1      43.261040 2.568145 15.752130
 230  1      51.886124 54.854942 68.214859
 231  1      49.733170 53.611938 54.194828
 232  1      62.670799 1.325135 19.219671
 233  1      28.167145 88.467888 68.214859
 234  1      64.823753 2.568145 33.239708
 235  1      51.886124 54.854942 50.727287
 236  1      49.733170 53.611938 36.707249
 237  1      10.920288 38.672848 71.682404
 238  1      13.073242 39.915859 85.702438
 239  1      41.108086 1.325135 19.219671
 240  1      43.261040 2.568145 33.239708
 241  1      51.886124 54.854942 33.239708
 242  1      49.733170 53.611938 19.219671
 243  1      28.167145 88.467888 103.190018
 244  1      84.230202 21.242002 33.239708
 245  1      82.077240 19.998993 19.219671
 246  1      26.014191 87.224876 89.169983
 247  1      10.920288 38.672848 89.169983
 248  1      88.542740 58.589718 68.214859
 249  1      56.198669 62.324490 50.727287
 250  1      43.261040 39.915859 15.752130
 251  1      64.827072 5.059906 54.194828
 252  1      32.482998 23.733765 1.732093
 253  1      51.889442 19.998993 19.219671
 254  1      54.042397 21.242002 33.239708
 255  1      21.701645 57.346706 36.707249
 256  1      23.854599 58.589718 50.727287
 257  1      32.479683 21.242002 103.190018
 258  1      30.326727 19.998993 89.169983
 259  1      23.854599 80.998344 15.752130
 260  1      66.983337 8.794679 89.169983
 261  1      69.136299 10.037688 103.190018
 262  1      21.701637 79.755333 1.732093
 263  1      51.889442 19.998993 36.707249
 264  1      32.479683 21.242002 85.702438
 265  1      30.326727 19.998993 71.682404
 266  1      54.042397 21.242002 50.727287
 267  1      21.701645 57.346706 54.194828
 268  1      23.854599 58.589718 68.214859
 269  1      32.479683 21.242002 68.214859
 270  1      30.326727 19.998993 54.194828
 271  1      84.230194 51.120174 103.190018
 272  1      51.889442 19.998993 54.194828
 273  1      79.917656 13.772459 85.702438
 274  1      77.764694 12.529449 71.682404
 275  1      54.042397 21.242002 68.214859
 276  1      32.479683 21.242002 50.727287
 277  1      30.326727 19.998993 36.707249
 278  1      21.701645 57.346706 71.682404
 279  1      34.635956 24.976774 15.752130
 280  1      23.854599 58.589718 85.702438
 281  1      77.761383 2.568145 33.239708
 282  1      86.386467 54.854942 15.752130
 283  1      51.886124 17.507231 85.702438
 284  1      69.136299 10.037688 68.214859
 285  1      23.854599 80.998344 50.727287
 286  1      34.635956 24.976774 85.702438
 287  1      32.482998 23.733765 71.682404
 288  1      21.701637 79.755333 36.707249
 289  1      75.608429 1.325135 19.219671
 290  1      49.733170 16.264221 89.169983
 291  1      51.886124 17.507231 103.190018
 292  1      21.701645 57.346706 1.732093
 293  1      34.635956 24.976774 68.214859
 294  1      32.482998 23.733765 54.194828
 295  1      23.854599 58.589718 15.752130
 296  1      79.917656 13.772459 103.190018
 297  1      77.764694 12.529449 89.169983
 298  1      34.635956 24.976774 50.727287
 299  1      32.482998 23.733765 36.707249
 300  1      23.854599 80.998344 33.239708
 301  1      66.983337 8.794679 71.682404
 302  1      69.136299 10.037688 85.702438
 303  1      21.701645 57.346706 19.219671
 304  1      23.854599 58.589718 33.239708
 305  1      51.889442 19.998993 1.732093
 306  1      54.042397 21.242002 15.752130
 307  1      34.635956 24.976774 33.239708
 308  1      32.482998 23.733765 19.219671
 309  1      21.701637 79.755333 19.219671
 310  1      84.233513 53.611938 1.732093
 311  1      21.698326 77.263573 103.190018
 312  1      19.545372 76.020569 89.169983
 313  1      82.077240 49.877163 89.169983
 314  1      82.077240 49.877163 71.682404
 315  1      30.323414 17.507231 50.727287
 316  1      28.170456 16.264221 36.707249
 317  1      54.045712 23.733765 19.219671
 318  1      77.764694 12.529449 54.194828
 319  1      56.198666 24.976774 33.239708
 320  1      21.698326 77.263573 68.214859
 321  1      19.545372 76.020569 54.194828
 322  1      30.323414 17.507231 33.239708
 323  1      28.170456 16.264221 19.219671
 324  1      69.139610 12.529449 36.707249
 325  1      23.857918 61.081478 36.707249
 326  1      26.010864 62.324490 50.727287
 327  1      54.045712 23.733765 36.707249
 328  1      56.198666 24.976774 50.727287
 329  1      30.323414 17.507231 15.752130
 330  1      28.170456 16.264221 1.732093
 331  1      71.292564 13.772459 50.727287
 332  1      21.698326 77.263573 50.727287
 333  1      54.045712 23.733765 54.194828
 334  1      28.167141 13.772459 103.190018
 335  1      26.014185 12.529449 89.169983
 336  1      23.857918 61.081478 54.194828
 337  1      26.010864 62.324490 68.214859
 338  1      56.198666 24.976774 68.214859
 339  1      19.545372 76.020569 36.707249
 340  1      28.167141 13.772459 85.702438
 341  1      26.010864 62.324490 33.239708
 342  1      23.857918 61.081478 19.219671
 343  1      79.917656 13.772459 68.214859
 344  1      84.230194 51.120174 85.702438
 345  1      32.479683 21.242002 33.239708
 346  1      30.326727 19.998993 19.219671
 347  1      69.139610 12.529449 1.732093
 348  1      71.292564 13.772459 15.752130
 349  1      51.889442 19.998993 71.682404
 350  1      54.042397 21.242002 85.702438
 351  1      21.701645 57.346706 89.169983
 352  1      32.479683 21.242002 15.752130
 353  1      30.326727 19.998993 1.732093
 354  1      23.854599 58.589718 103.190018
 355  1      75.608429 1.325135 36.707249
 356  1      51.889442 19.998993 89.169983
 357  1      54.042397 21.242002 103.190018
 358  1      21.698326 54.854942 103.190018
 359  1      30.323414 17.507231 103.190018
 360  1      21.698326 77.263573 85.702438
 361  1      19.545372 76.020569 71.682404
 362  1      23.857918 61.081478 1.732093
 363  1      26.010864 62.324490 15.752130
 364  1      77.761383 2.568145 50.727287
 365  1      30.323414 17.507231 85.702438
 366  1      28.170456 16.264221 71.682404
 367  1      54.045712 23.733765 1.732093
 368  1      56.198666 24.976774 15.752130
 369  1      69.139610 12.529449 19.219671
 370  1      71.292564 13.772459 33.239708
 371  1      30.323414 17.507231 68.214859
 372  1      28.170456 16.264221 54.194828
 373  1      28.170456 16.264221 89.169983
 374  1      41.108086 38.672848 1.732093
 375  1      19.545372 53.611938 89.169983
 376  1      34.635956 24.976774 103.190018
 377  1      41.104771 36.181087 33.239708
 378  1      38.951813 34.938080 19.219671
 379  1      26.010864 84.733116 33.239708
 380  1      23.857910 83.490105 19.219671
 381  1      47.576897 12.529449 36.707249
 382  1      41.104771 36.181087 15.752130
 383  1      38.951813 34.938080 1.732093
 384  1      64.827072 5.059906 89.169983
 385  1      66.980026 6.302917 103.190018
 386  1      17.389099 49.877163 71.682404
 387  1      19.542053 51.120174 85.702438
 388  1      49.729855 13.772459 50.727287
 389  1      38.948498 32.446316 103.190018
 390  1      36.795540 31.203306 89.169983
 391  1      86.386467 54.854942 68.214859
 392  1      84.233513 53.611938 54.194828
 393  1      26.010864 84.733116 15.752130
 394  1      47.576897 12.529449 54.194828
 395  1      49.729855 13.772459 68.214859
 396  1      38.948498 32.446316 85.702438
 397  1      36.795540 31.203306 71.682404
 398  1      17.389099 49.877163 89.169983
 399  1      19.542053 51.120174 103.190018
 400  1      23.857910 83.490105 1.732093
 401  1      47.576897 12.529449 71.682404
 402  1      49.729855 13.772459 85.702438
 403  1      38.948498 32.446316 68.214859
 404  1      49.729855 13.772459 33.239708
 405  1      36.795540 31.203306 54.194828
 406  1      19.542053 51.120174 68.214859
 407  1      79.920967 16.264221 36.707249
 408  1      66.980026 6.302917 68.214859
 409  1      86.386467 54.854942 85.702438
 410  1      45.420628 8.794679 89.169983
 411  1      47.573582 10.037688 103.190018
 412  1      41.104771 36.181087 103.190018
 413  1      38.951813 34.938080 89.169983
 414  1      17.389099 49.877163 19.219671
 415  1      19.542053 51.120174 33.239708
 416  1      26.010864 84.733116 50.727287
 417  1      23.857910 83.490105 36.707249
 418  1      41.104771 36.181087 85.702438
 419  1      38.951813 34.938080 71.682404
 420  1      84.233513 53.611938 71.682404
 421  1      47.576897 12.529449 1.732093
 422  1      49.729855 13.772459 15.752130
 423  1      64.827072 5.059906 71.682404
 424  1      17.389099 49.877163 36.707249
 425  1      41.104771 36.181087 68.214859
 426  1      38.951813 34.938080 54.194828
 427  1      19.542053 51.120174 50.727287
 428  1      17.389099 87.224876 89.169983
 429  1      19.542061 88.467888 103.190018
 430  1      66.980026 6.302917 85.702438
 431  1      41.104771 36.181087 50.727287
 432  1      38.951813 34.938080 36.707249
 433  1      47.576897 12.529449 19.219671
 434  1      82.073929 17.507231 50.727287
 435  1      17.389099 49.877163 54.194828
 436  1      82.073929 17.507231 33.239708
 437  1      66.983337 8.794679 1.732093
 438  1      69.136299 10.037688 15.752130
 439  1      51.886124 17.507231 33.239708
 440  1      36.792225 28.711544 68.214859
 441  1      34.639271 27.468534 54.194828
 442  1      82.073929 17.507231 15.752130
 443  1      79.920967 16.264221 1.732093
 444  1      19.545372 53.611938 54.194828
 445  1      21.698326 54.854942 68.214859
 446  1      49.733170 16.264221 36.707249
 447  1      36.792225 28.711544 50.727287
 448  1      34.639271 27.468534 36.707249
 449  1      51.886124 17.507231 50.727287
 450  1      66.983337 8.794679 36.707249
 451  1      69.136299 10.037688 50.727287
 452  1      23.854599 80.998344 68.214859
 453  1      36.792225 28.711544 33.239708
 454  1      34.639271 27.468534 19.219671
 455  1      21.701637 79.755333 54.194828
 456  1      19.545372 53.611938 71.682404
 457  1      21.698326 54.854942 85.702438
 458  1      86.386467 54.854942 33.239708
 459  1      49.733170 16.264221 54.194828
 460  1      51.886124 17.507231 68.214859
 461  1      36.792225 28.711544 15.752130
 462  1      34.639271 27.468534 1.732093
 463  1      84.233513 53.611938 19.219671
 464  1      66.983337 8.794679 54.194828
 465  1      49.733170 16.264221 71.682404
 466  1      49.733170 16.264221 19.219671
 467  1      77.761383 2.568145 15.752130
 468  1      34.639271 27.468534 71.682404
 469  1      36.792225 28.711544 85.702438
 470  1      38.948498 32.446316 50.727287
 471  1      36.795540 31.203306 36.707249
 472  1      19.545372 53.611938 1.732093
 473  1      21.698326 54.854942 15.752130
 474  1      23.854599 80.998344 103.190018
 475  1      21.701637 79.755333 89.169983
 476  1      47.576897 12.529449 89.169983
 477  1      49.729855 13.772459 103.190018
 478  1      38.948498 32.446316 33.239708
 479  1      36.795540 31.203306 19.219671
 480  1      79.920967 16.264221 19.219671
 481  1      19.545372 53.611938 19.219671
 482  1      86.386467 54.854942 50.727287
 483  1      32.482998 23.733765 89.169983
 484  1      84.233513 53.611938 36.707249
 485  1      36.795540 31.203306 1.732093
 486  1      21.698326 54.854942 33.239708
 487  1      75.608429 1.325135 1.732093
 488  1      49.733170 16.264221 1.732093
 489  1      51.886124 17.507231 15.752130
 490  1      66.983337 8.794679 19.219671
 491  1      36.792225 28.711544 103.190018
 492  1      34.639271 27.468534 89.169983
 493  1      69.136299 10.037688 33.239708
 494  1      19.545372 53.611938 36.707249
 495  1      21.698326 54.854942 50.727287
 496  1      23.854599 80.998344 85.702438
 497  1      21.701637 79.755333 71.682404
 498  1      38.948498 32.446316 15.752130
 499  1      10.916969 36.181087 68.214859
 500  1      8.764015 34.938080 54.194828
 501  1      86.386475 84.733116 103.190018
 502  1      101.483681 16.264221 71.682404
 503  1      0.135612 17.507231 85.702438
 504  1      92.855278 13.772459 68.214859
 505  1      90.702324 12.529449 54.194828
 506  1      28.167141 6.302917 15.752130
 507  1      26.014187 5.059906 1.732093
 508  1      73.452156 64.816254 71.682404
 509  1      75.605110 66.059258 85.702438
 510  1      88.542740 28.711544 15.752130
 511  1      86.389778 27.468534 1.732093
 512  1      26.010870 2.568145 103.190018
 513  1      23.857916 1.325135 89.169983
 514  1      101.483681 16.264221 89.169983
 515  1      0.135612 17.507231 103.190018
 516  1      92.855278 66.059258 68.214859
 517  1      90.702324 64.816254 54.194828
 518  1      73.452156 64.816254 89.169983
 519  1      75.605110 66.059258 103.190018
 520  1      26.010870 2.568145 85.702438
 521  1      23.857916 1.325135 71.682404
 522  1      0.138931 79.755333 1.732093
 523  1      2.291893 80.998344 15.752130
 524  1      0.138931 19.998993 1.732093
 525  1      92.855278 13.772459 50.727287
 526  1      26.010870 2.568145 68.214859
 527  1      23.857916 1.325135 54.194828
 528  1      2.291885 21.242002 15.752130
 529  1      0.135620 77.263573 103.190018
 530  1      90.702324 12.529449 36.707249
 531  1      26.014187 5.059906 19.219671
 532  1      101.483681 76.020569 89.169983
 533  1      88.542740 28.711544 33.239708
 534  1      90.702324 64.816254 71.682404
 535  1      73.452156 64.816254 19.219671
 536  1      28.167141 6.302917 103.190018
 537  1      26.014187 5.059906 89.169983
 538  1      86.389778 27.468534 19.219671
 539  1      75.605110 66.059258 33.239708
 540  1      101.483681 76.020569 71.682404
 541  1      101.483681 16.264221 36.707249
 542  1      0.135612 17.507231 50.727287
 543  1      28.167141 6.302917 85.702438
 544  1      26.014187 5.059906 71.682404
 545  1      0.135620 77.263573 85.702438
 546  1      92.855278 13.772459 85.702438
 547  1      90.702324 12.529449 71.682404
 548  1      73.452156 64.816254 36.707249
 549  1      75.605110 66.059258 50.727287
 550  1      28.167141 6.302917 68.214859
 551  1      26.014187 5.059906 54.194828
 552  1      101.483681 16.264221 54.194828
 553  1      0.135612 17.507231 68.214859
 554  1      15.232826 83.490105 19.219671
 555  1      17.385796 84.733116 33.239708
 556  1      28.167141 6.302917 50.727287
 557  1      26.014187 5.059906 36.707249
 558  1      73.452156 64.816254 54.194828
 559  1      75.605110 66.059258 68.214859
 560  1      28.167141 6.302917 33.239708
 561  1      75.608421 68.551018 1.732093
 562  1      77.761383 69.794029 15.752130
 563  1      26.010870 2.568145 50.727287
 564  1      71.292564 88.467888 68.214859
 565  1      69.139610 87.224876 54.194828
 566  1      0.138931 79.755333 36.707249
 567  1      2.291893 80.998344 50.727287
 568  1      90.702324 12.529449 1.732093
 569  1      75.608421 68.551018 71.682404
 570  1      71.292564 88.467888 50.727287
 571  1      69.139610 87.224876 36.707249
 572  1      0.138931 19.998993 71.682404
 573  1      2.291885 21.242002 85.702438
 574  1      77.761383 69.794029 85.702438
 575  1      92.855278 66.059258 33.239708
 576  1      71.292564 88.467888 33.239708
 577  1      69.139610 87.224876 19.219671
 578  1      90.699013 10.037688 103.190018
 579  1      86.386475 24.976774 85.702438
 580  1      0.138931 79.755333 54.194828
 581  1      0.138931 19.998993 89.169983
 582  1      88.546051 8.794679 89.169983
 583  1      75.608421 68.551018 89.169983
 584  1      71.292564 88.467888 15.752130
 585  1      69.139610 87.224876 1.732093
 586  1      2.291885 21.242002 103.190018
 587  1      77.761383 69.794029 103.190018
 588  1      2.291893 80.998344 68.214859
 589  1      90.702324 64.816254 19.219671
 590  1      77.764694 72.285789 1.732093
 591  1      77.761383 69.794029 68.214859
 592  1      75.608421 68.551018 54.194828
 593  1      2.291885 21.242002 68.214859
 594  1      0.138931 19.998993 54.194828
 595  1      23.857916 1.325135 36.707249
 596  1      0.138931 19.998993 19.219671
 597  1      2.291885 21.242002 33.239708
 598  1      75.608421 68.551018 19.219671
 599  1      77.761383 69.794029 33.239708
 600  1      26.010870 2.568145 33.239708
 601  1      23.857916 1.325135 19.219671
 602  1      92.855278 13.772459 33.239708
 603  1      0.138931 79.755333 19.219671
 604  1      2.291893 80.998344 33.239708
 605  1      90.702324 12.529449 19.219671
 606  1      92.855278 66.059258 50.727287
 607  1      26.010870 2.568145 15.752130
 608  1      92.855278 66.059258 85.702438
 609  1      23.857916 1.325135 1.732093
 610  1      15.232826 83.490105 36.707249
 611  1      0.138931 19.998993 36.707249
 612  1      2.291885 21.242002 50.727287
 613  1      75.608421 68.551018 36.707249
 614  1      77.761383 69.794029 50.727287
 615  1      71.292564 88.467888 103.190018
 616  1      69.139610 87.224876 89.169983
 617  1      86.386475 24.976774 103.190018
 618  1      84.233513 23.733765 89.169983
 619  1      17.385796 84.733116 50.727287
 620  1      71.292564 88.467888 85.702438
 621  1      69.139610 87.224876 71.682404
 622  1      92.855278 13.772459 15.752130
 623  1      90.702324 64.816254 36.707249
 624  1      69.136299 84.733116 103.190018
 625  1      0.135612 17.507231 33.239708
 626  1      30.323412 10.037688 15.752130
 627  1      34.635956 17.507231 50.727287
 628  1      32.483002 16.264221 36.707249
 629  1      101.480370 73.528801 103.190018
 630  1      69.139610 57.346706 71.682404
 631  1      71.292572 58.589718 85.702438
 632  1      34.635956 17.507231 33.239708
 633  1      32.483002 16.264221 19.219671
 634  1      99.327408 12.529449 1.732093
 635  1      101.480362 13.772459 15.752130
 636  1      95.011551 17.507231 68.214859
 637  1      92.858597 16.264221 54.194828
 638  1      69.139610 57.346706 89.169983
 639  1      34.635956 17.507231 15.752130
 640  1      32.483002 16.264221 1.732093
 641  1      71.292572 58.589718 103.190018
 642  1      88.542740 28.711544 68.214859
 643  1      101.483681 76.020569 1.732093
 644  1      0.135620 77.263573 15.752130
 645  1      32.479683 13.772459 103.190018
 646  1      30.326729 12.529449 89.169983
 647  1      99.327408 12.529449 19.219671
 648  1      101.480362 13.772459 33.239708
 649  1      95.011551 69.794029 15.752130
 650  1      71.295883 61.081478 1.732093
 651  1      73.448845 62.324490 15.752130
 652  1      32.479683 13.772459 85.702438
 653  1      30.326729 12.529449 71.682404
 654  1      92.858589 68.551018 19.219671
 655  1      86.389778 27.468534 54.194828
 656  1      95.011551 69.794029 33.239708
 657  1      99.324097 10.037688 103.190018
 658  1      97.171135 8.794679 54.194828
 659  1      95.011551 17.507231 103.190018
 660  1      92.858597 16.264221 89.169983
 661  1      36.792225 21.242002 15.752130
 662  1      34.639271 19.998993 1.732093
 663  1      99.324097 10.037688 68.214859
 664  1      13.076553 79.755333 89.169983
 665  1      15.229523 80.998344 103.190018
 666  1      99.327408 72.285789 71.682404
 667  1      101.480370 73.528801 85.702438
 668  1      69.139610 57.346706 36.707249
 669  1      71.292572 58.589718 50.727287
 670  1      34.635956 17.507231 103.190018
 671  1      32.483002 16.264221 89.169983
 672  1      88.542740 28.711544 85.702438
 673  1      97.171135 8.794679 71.682404
 674  1      99.324097 10.037688 85.702438
 675  1      34.635956 17.507231 85.702438
 676  1      32.483002 16.264221 71.682404
 677  1      86.389778 27.468534 71.682404
 678  1      95.011551 17.507231 85.702438
 679  1      69.139610 57.346706 54.194828
 680  1      71.292572 58.589718 68.214859
 681  1      34.635956 17.507231 68.214859
 682  1      32.483002 16.264221 54.194828
 683  1      99.327408 72.285789 89.169983
 684  1      97.171135 8.794679 89.169983
 685  1      92.858597 16.264221 71.682404
 686  1      99.327408 12.529449 36.707249
 687  1      95.011551 17.507231 50.727287
 688  1      92.858597 16.264221 36.707249
 689  1      92.855278 66.059258 103.190018
 690  1      90.702324 64.816254 89.169983
 691  1      30.323412 10.037688 85.702438
 692  1      28.170458 8.794679 71.682404
 693  1      99.327408 12.529449 89.169983
 694  1      101.480362 13.772459 103.190018
 695  1      71.295883 61.081478 71.682404