# Converted from POSCAR to lammps format

12442 atoms
3 atom types

0.000000   72.169560   xlo xhi
0.000000   72.169560   ylo yhi
0.000000   72.169560   zlo zhi

  0.000000    0.000000    0.000000   xy xz yz

Atoms

   1  1      0.000000 6.014130 24.056520
   2  1      66.155430 9.021195 63.148365
   3  1      69.162495 30.070650 3.007065
   4  1      6.014130 51.120105 63.148365
   5  1      24.056520 54.127170 60.141300
   6  1      42.098910 21.049455 45.105975
   7  1      12.028260 9.021195 51.120105
   8  1      54.127170 39.091845 45.105975
   9  1      57.134235 63.148365 54.127170
  10  1      60.141300 3.007065 39.091845
  11  1      3.007065 0.000000 15.035325
  12  1      39.091845 9.021195 60.141300
  13  1      18.042390 30.070650 36.084780
  14  1      69.162495 21.049455 18.042390
  15  1      69.162495 51.120105 18.042390
  16  1      54.127170 36.084780 0.000000
  17  1      60.141300 18.042390 12.028260
  18  1      42.098910 60.141300 6.014130
  19  1      36.084780 3.007065 69.162495
  20  1      54.127170 21.049455 69.162495
  21  1      36.084780 24.056520 60.141300
  22  1      15.035325 33.077715 18.042390
  23  1      66.155430 27.063585 39.091845
  24  1      15.035325 42.098910 63.148365
  25  1      30.070650 12.028260 66.155430
  26  1      27.063585 18.042390 39.091845
  27  1      9.021195 36.084780 27.063585
  28  1      30.070650 57.134235 39.091845
  29  1      45.105975 36.084780 33.077715
  30  1      36.084780 54.127170 54.127170
  31  1      66.155430 63.148365 69.162495
  32  1      9.021195 66.155430 9.021195
  33  1      15.035325 30.070650 69.162495
  34  1      69.162495 24.056520 33.077715
  35  1      42.098910 18.042390 36.084780
  36  1      48.113040 36.084780 0.000000
  37  1      45.105975 69.162495 42.098910
  38  1      66.155430 39.091845 9.021195
  39  1      69.162495 36.084780 51.120105
  40  1      66.155430 6.014130 18.042390
  41  1      57.134235 18.042390 9.021195
  42  1      39.091845 15.035325 30.070650
  43  1      6.014130 6.014130 36.084780
  44  1      30.070650 15.035325 45.105975
  45  1      33.077715 33.077715 42.098910
  46  1      15.035325 15.035325 24.056520
  47  1      9.021195 45.105975 66.155430
  48  1      57.134235 15.035325 60.141300
  49  1      30.070650 33.077715 9.021195
  50  1      69.162495 15.035325 0.000000
  51  1      54.127170 6.014130 18.042390
  52  1      69.162495 42.098910 27.063585
  53  1      63.148365 54.127170 9.021195
  54  1      24.056520 45.105975 33.077715
  55  1      21.049455 21.049455 54.127170
  56  1      9.021195 33.077715 30.070650
  57  1      6.014130 54.127170 6.014130
  58  1      63.148365 54.127170 15.035325
  59  1      0.000000 60.141300 36.084780
  60  1      30.070650 9.021195 51.120105
  61  1      33.077715 33.077715 18.042390
  62  1      27.063585 42.098910 33.077715
  63  1      12.028260 3.007065 63.148365
  64  1      57.134235 39.091845 54.127170
  65  1      33.077715 48.113040 21.049455
  66  1      33.077715 24.056520 9.021195
  67  1      27.063585 12.028260 21.049455
  68  1      33.077715 51.120105 12.028260
  69  1      63.148365 66.155430 57.134235
  70  1      3.007065 57.134235 30.070650
  71  1      36.084780 6.014130 0.000000
  72  1      54.127170 6.014130 30.070650
  73  1      51.120105 39.091845 12.028260
  74  1      0.000000 57.134235 21.049455
  75  1      60.141300 6.014130 60.141300
  76  1      66.155430 45.105975 15.035325
  77  1      45.105975 48.113040 15.035325
  78  1      57.134235 66.155430 33.077715
  79  1      24.056520 9.021195 15.035325
  80  1      39.091845 6.014130 45.105975
  81  1      9.021195 57.134235 30.070650
  82  1      33.077715 27.063585 36.084780
  83  1      18.042390 36.084780 24.056520
  84  1      60.141300 30.070650 24.056520
  85  1      12.028260 63.148365 39.091845
  86  1      27.063585 45.105975 12.028260
  87  1      42.098910 54.127170 24.056520
  88  1      24.056520 63.148365 21.049455
  89  1      33.077715 27.063585 54.127170
  90  1      27.063585 51.120105 66.155430
  91  1      18.042390 6.014130 0.000000
  92  1      39.091845 18.042390 63.148365
  93  1      27.063585 9.021195 36.084780
  94  1      12.028260 27.063585 3.007065
  95  1      42.098910 48.113040 18.042390
  96  1      69.162495 66.155430 21.049455
  97  1      60.141300 36.084780 30.070650
  98  1      57.134235 42.098910 33.077715
  99  1      48.113040 69.162495 15.035325
 100  1      9.021195 9.021195 48.113040
 101  1      6.014130 33.077715 9.021195
 102  1      24.056520 0.000000 36.084780
 103  1      27.063585 42.098910 21.049455
 104  1      24.056520 30.070650 6.014130
 105  1      51.120105 24.056520 27.063585
 106  1      21.049455 3.007065 24.056520
 107  1      6.014130 45.105975 39.091845
 108  1      57.134235 30.070650 69.162495
 109  1      30.070650 39.091845 63.148365
 110  1      24.056520 66.155430 24.056520
 111  1      69.162495 51.120105 48.113040
 112  1      12.028260 54.127170 54.127170
 113  1      60.141300 21.049455 27.063585
 114  1      33.077715 33.077715 66.155430
 115  1      45.105975 0.000000 15.035325
 116  1      27.063585 39.091845 36.084780
 117  1      18.042390 69.162495 57.134235
 118  1      63.148365 63.148365 0.000000
 119  1      3.007065 36.084780 45.105975
 120  1      45.105975 51.120105 30.070650
 121  1      66.155430 57.134235 15.035325
 122  1      39.091845 54.127170 45.105975
 123  1      60.141300 66.155430 66.155430
 124  1      45.105975 3.007065 54.127170
 125  1      54.127170 30.070650 42.098910
 126  1      36.084780 60.141300 24.056520
 127  1      48.113040 48.113040 54.127170
 128  1      21.049455 39.091845 18.042390
 129  1      39.091845 54.127170 21.049455
 130  1      39.091845 6.014130 63.148365
 131  1      6.014130 0.000000 30.070650
 132  1      6.014130 60.141300 6.014130
 133  1      24.056520 3.007065 3.007065
 134  1      30.070650 69.162495 21.049455
 135  1      66.155430 15.035325 63.148365
 136  1      24.056520 30.070650 66.155430
 137  1      36.084780 63.148365 33.077715
 138  1      3.007065 48.113040 63.148365
 139  1      33.077715 30.070650 21.049455
 140  1      66.155430 3.007065 63.148365
 141  1      12.028260 69.162495 27.063585
 142  1      36.084780 24.056520 6.014130
 143  1      30.070650 27.063585 45.105975
 144  1      39.091845 33.077715 48.113040
 145  1      33.077715 24.056520 27.063585
 146  1      36.084780 69.162495 15.035325
 147  1      48.113040 66.155430 36.084780
 148  1      3.007065 15.035325 24.056520
 149  1      9.021195 54.127170 63.148365
 150  1      9.021195 9.021195 18.042390
 151  1      66.155430 48.113040 12.028260
 152  1      3.007065 36.084780 3.007065
 153  1      48.113040 66.155430 0.000000
 154  1      12.028260 9.021195 63.148365
 155  1      42.098910 54.127170 60.141300
 156  1      45.105975 51.120105 54.127170
 157  1      39.091845 18.042390 45.105975
 158  1      27.063585 30.070650 15.035325
 159  1      33.077715 69.162495 18.042390
 160  1      6.014130 0.000000 54.127170
 161  1      57.134235 63.148365 30.070650
 162  1      21.049455 69.162495 48.113040
 163  1      3.007065 54.127170 63.148365
 164  1      69.162495 3.007065 60.141300
 165  1      12.028260 21.049455 15.035325
 166  1      60.141300 21.049455 39.091845
 167  1      63.148365 3.007065 36.084780
 168  1      21.049455 21.049455 18.042390
 169  1      15.035325 57.134235 60.141300
 170  1      24.056520 15.035325 57.134235
 171  1      45.105975 9.021195 42.098910
 172  1      15.035325 6.014130 51.120105
 173  1      48.113040 18.042390 48.113040
 174  1      51.120105 66.155430 69.162495
 175  1      3.007065 27.063585 48.113040
 176  1      15.035325 66.155430 39.091845
 177  1      51.120105 51.120105 30.070650
 178  1      3.007065 63.148365 30.070650
 179  1      18.042390 15.035325 69.162495
 180  1      36.084780 60.141300 60.141300
 181  1      30.070650 12.028260 30.070650
 182  1      30.070650 48.113040 0.000000
 183  1      36.084780 57.134235 9.021195
 184  1      36.084780 39.091845 63.148365
 185  1      42.098910 30.070650 54.127170
 186  1      36.084780 45.105975 3.007065
 187  1      24.056520 39.091845 9.021195
 188  1      24.056520 33.077715 9.021195
 189  1      63.148365 42.098910 69.162495
 190  1      0.000000 27.063585 27.063585
 191  1      21.049455 66.155430 27.063585
 192  1      42.098910 48.113040 24.056520
 193  1      0.000000 18.042390 66.155430
 194  1      66.155430 15.035325 21.049455
 195  1      3.007065 12.028260 27.063585
 196  1      57.134235 0.000000 21.049455
 197  1      30.070650 27.063585 57.134235
 198  1      63.148365 45.105975 66.155430
 199  1      27.063585 69.162495 18.042390
 200  1      33.077715 12.028260 45.105975
 201  1      51.120105 69.162495 54.127170
 202  1      48.113040 15.035325 69.162495
 203  1      63.148365 33.077715 0.000000
 204  1      42.098910 0.000000 48.113040
 205  1      21.049455 33.077715 6.014130
 206  1      39.091845 24.056520 21.049455
 207  1      54.127170 42.098910 30.070650
 208  1      36.084780 66.155430 30.070650
 209  1      39.091845 57.134235 30.070650
 210  1      30.070650 3.007065 27.063585
 211  1      3.007065 30.070650 33.077715
 212  1      3.007065 21.049455 60.141300
 213  1      69.162495 30.070650 27.063585
 214  1      63.148365 0.000000 27.063585
 215  1      45.105975 18.042390 51.120105
 216  1      51.120105 0.000000 63.148365
 217  1      9.021195 33.077715 42.098910
 218  1      66.155430 30.070650 66.155430
 219  1      33.077715 63.148365 54.127170
 220  1      39.091845 51.120105 54.127170
 221  1      18.042390 48.113040 66.155430
 222  1      12.028260 69.162495 9.021195
 223  1      15.035325 54.127170 27.063585
 224  1      57.134235 48.113040 39.091845
 225  1      57.134235 36.084780 15.035325
 226  1      36.084780 27.063585 51.120105
 227  1      21.049455 39.091845 6.014130
 228  1      30.070650 39.091845 57.134235
 229  1      51.120105 6.014130 21.049455
 230  1      27.063585 21.049455 48.113040
 231  1      3.007065 24.056520 57.134235
 232  1      45.105975 24.056520 3.007065
 233  1      12.028260 42.098910 18.042390
 234  1      27.063585 69.162495 60.141300
 235  1      48.113040 45.105975 3.007065
 236  1      3.007065 9.021195 66.155430
 237  1      27.063585 39.091845 18.042390
 238  1      51.120105 36.084780 33.077715
 239  1      60.141300 24.056520 0.000000
 240  1      3.007065 3.007065 60.141300
 241  1      39.091845 45.105975 36.084780
 242  1      18.042390 39.091845 9.021195
 243  1      57.134235 18.042390 39.091845
 244  1      48.113040 63.148365 57.134235
 245  1      54.127170 36.084780 48.113040
 246  1      18.042390 15.035325 45.105975
 247  1      33.077715 66.155430 39.091845
 248  1      0.000000 42.098910 66.155430
 249  1      21.049455 51.120105 60.141300
 250  1      48.113040 18.042390 66.155430
 251  1      39.091845 39.091845 0.000000
 252  1      48.113040 33.077715 15.035325
 253  1      66.155430 45.105975 51.120105
 254  1      36.084780 21.049455 45.105975
 255  1      51.120105 57.134235 36.084780
 256  1      51.120105 45.105975 66.155430
 257  1      12.028260 66.155430 48.113040
 258  1      33.077715 54.127170 45.105975
 259  1      60.141300 48.113040 54.127170
 260  1      45.105975 3.007065 18.042390
 261  1      42.098910 30.070650 6.014130
 262  1      63.148365 63.148365 6.014130
 263  1      66.155430 48.113040 60.141300
 264  1      39.091845 9.021195 24.056520
 265  1      3.007065 51.120105 12.028260
 266  1      54.127170 54.127170 12.028260
 267  1      36.084780 15.035325 15.035325
 268  1      9.021195 66.155430 3.007065
 269  1      51.120105 48.113040 69.162495
 270  1      36.084780 12.028260 48.113040
 271  1      33.077715 33.077715 6.014130
 272  1      48.113040 45.105975 63.148365
 273  1      69.162495 3.007065 24.056520
 274  1      24.056520 21.049455 69.162495
 275  1      54.127170 9.021195 21.049455
 276  1      66.155430 60.141300 12.028260
 277  1      24.056520 51.120105 51.120105
 278  1      9.021195 63.148365 54.127170
 279  1      9.021195 66.155430 51.120105
 280  1      48.113040 6.014130 60.141300
 281  1      27.063585 21.049455 18.042390
 282  1      9.021195 21.049455 0.000000
 283  1      9.021195 0.000000 45.105975
 284  1      24.056520 18.042390 48.113040
 285  1      42.098910 48.113040 60.141300
 286  1      69.162495 57.134235 12.028260
 287  1      57.134235 45.105975 24.056520
 288  1      57.134235 30.070650 9.021195
 289  1      60.141300 51.120105 45.105975
 290  1      21.049455 33.077715 12.028260
 291  1      9.021195 69.162495 24.056520
 292  1      27.063585 39.091845 24.056520
 293  1      36.084780 9.021195 51.120105
 294  1      21.049455 6.014130 27.063585
 295  1      45.105975 36.084780 3.007065
 296  1      42.098910 30.070650 36.084780
 297  1      33.077715 6.014130 51.120105
 298  1      48.113040 24.056520 54.127170
 299  1      18.042390 18.042390 18.042390
 300  1      54.127170 36.084780 36.084780
 301  1      48.113040 48.113040 0.000000
 302  1      12.028260 36.084780 54.127170
 303  1      63.148365 27.063585 6.014130
 304  1      60.141300 0.000000 6.014130
 305  1      18.042390 18.042390 36.084780
 306  1      66.155430 18.042390 66.155430
 307  1      57.134235 33.077715 66.155430
 308  1      54.127170 15.035325 51.120105
 309  1      69.162495 0.000000 3.007065
 310  1      6.014130 33.077715 33.077715
 311  1      54.127170 66.155430 0.000000
 312  1      21.049455 30.070650 27.063585
 313  1      30.070650 33.077715 27.063585
 314  1      42.098910 9.021195 57.134235
 315  1      33.077715 27.063585 0.000000
 316  1      66.155430 18.042390 12.028260
 317  1      60.141300 6.014130 18.042390
 318  1      18.042390 9.021195 27.063585
 319  1      36.084780 39.091845 69.162495
 320  1      51.120105 60.141300 69.162495
 321  1      30.070650 33.077715 51.120105
 322  1      6.014130 42.098910 12.028260
 323  1      39.091845 42.098910 69.162495
 324  1      57.134235 21.049455 24.056520
 325  1      12.028260 3.007065 69.162495
 326  1      6.014130 0.000000 18.042390
 327  1      48.113040 36.084780 54.127170
 328  1      51.120105 15.035325 24.056520
 329  1      54.127170 9.021195 45.105975
 330  1      12.028260 66.155430 18.042390
 331  1      21.049455 9.021195 36.084780
 332  1      51.120105 9.021195 18.042390
 333  1      3.007065 57.134235 12.028260
 334  1      63.148365 57.134235 24.056520
 335  1      33.077715 27.063585 24.056520
 336  1      6.014130 48.113040 30.070650
 337  1      39.091845 60.141300 33.077715
 338  1      57.134235 27.063585 0.000000
 339  1      60.141300 18.042390 48.113040
 340  1      30.070650 6.014130 42.098910
 341  1      54.127170 33.077715 15.035325
 342  1      48.113040 24.056520 18.042390
 343  1      3.007065 51.120105 60.141300
 344  1      51.120105 12.028260 27.063585
 345  1      42.098910 3.007065 45.105975
 346  1      3.007065 42.098910 21.049455
 347  1      60.141300 0.000000 54.127170
 348  1      63.148365 3.007065 24.056520
 349  1      24.056520 3.007065 33.077715
 350  1      69.162495 60.141300 45.105975
 351  1      69.162495 69.162495 24.056520
 352  1      21.049455 33.077715 24.056520
 353  1      36.084780 0.000000 6.014130
 354  1      33.077715 66.155430 51.120105
 355  1      42.098910 60.141300 48.113040
 356  1      45.105975 3.007065 60.141300
 357  1      36.084780 24.056520 12.028260
 358  1      6.014130 30.070650 18.042390
 359  1      21.049455 27.063585 12.028260
 360  1      18.042390 24.056520 48.113040
 361  1      66.155430 0.000000 18.042390
 362  1      36.084780 66.155430 54.127170
 363  1      51.120105 21.049455 6.014130
 364  1      15.035325 33.077715 36.084780
 365  1      3.007065 45.105975 0.000000
 366  1      39.091845 60.141300 3.007065
 367  1      60.141300 3.007065 3.007065
 368  1      66.155430 69.162495 39.091845
 369  1      3.007065 15.035325 12.028260
 370  1      69.162495 54.127170 69.162495
 371  1      39.091845 12.028260 63.148365
 372  1      69.162495 60.141300 15.035325
 373  1      54.127170 36.084780 24.056520
 374  1      60.141300 18.042390 36.084780
 375  1      30.070650 51.120105 69.162495
 376  1      69.162495 57.134235 30.070650
 377  1      6.014130 51.120105 39.091845
 378  1      30.070650 60.141300 36.084780
 379  1      15.035325 36.084780 33.077715
 380  1      30.070650 69.162495 51.120105
 381  1      21.049455 51.120105 12.028260
 382  1      63.148365 3.007065 60.141300
 383  1      63.148365 6.014130 27.063585
 384  1      36.084780 57.134235 45.105975
 385  1      42.098910 63.148365 9.021195
 386  1      42.098910 3.007065 21.049455
 387  1      48.113040 57.134235 27.063585
 388  1      3.007065 15.035325 6.014130
 389  1      0.000000 48.113040 0.000000
 390  1      48.113040 18.042390 36.084780
 391  1      69.162495 39.091845 24.056520
 392  1      24.056520 0.000000 60.141300
 393  1      63.148365 12.028260 57.134235
 394  1      66.155430 69.162495 69.162495
 395  1      42.098910 63.148365 69.162495
 396  1      12.028260 51.120105 51.120105
 397  1      15.035325 30.070650 15.035325
 398  1      12.028260 21.049455 39.091845
 399  1      60.141300 24.056520 6.014130
 400  1      45.105975 0.000000 45.105975
 401  1      51.120105 27.063585 6.014130
 402  1      12.028260 9.021195 69.162495
 403  1      60.141300 39.091845 57.134235
 404  1      54.127170 18.042390 12.028260
 405  1      66.155430 3.007065 45.105975
 406  1      21.049455 9.021195 0.000000
 407  1      6.014130 27.063585 33.077715
 408  1      3.007065 27.063585 66.155430
 409  1      69.162495 48.113040 27.063585
 410  1      63.148365 51.120105 0.000000
 411  1      51.120105 6.014130 15.035325
 412  1      63.148365 9.021195 18.042390
 413  1      12.028260 36.084780 12.028260
 414  1      42.098910 15.035325 33.077715
 415  1      0.000000 18.042390 6.014130
 416  1      66.155430 12.028260 36.084780
 417  1      12.028260 0.000000 18.042390
 418  1      57.134235 6.014130 45.105975
 419  1      33.077715 6.014130 33.077715
 420  1      51.120105 69.162495 18.042390
 421  1      33.077715 48.113040 51.120105
 422  1      36.084780 18.042390 12.028260
 423  1      27.063585 0.000000 27.063585
 424  1      18.042390 18.042390 6.014130
 425  1      33.077715 12.028260 33.077715
 426  1      45.105975 54.127170 33.077715
 427  1      42.098910 27.063585 69.162495
 428  1      60.141300 21.049455 51.120105
 429  1      45.105975 36.084780 45.105975
 430  1      27.063585 36.084780 63.148365
 431  1      36.084780 27.063585 33.077715
 432  1      9.021195 27.063585 30.070650
 433  1      51.120105 6.014130 51.120105
 434  1      48.113040 15.035325 33.077715
 435  1      42.098910 36.084780 18.042390
 436  1      45.105975 39.091845 24.056520
 437  1      27.063585 3.007065 12.028260
 438  1      30.070650 45.105975 33.077715
 439  1      69.162495 24.056520 27.063585
 440  1      39.091845 21.049455 0.000000
 441  1      51.120105 3.007065 42.098910
 442  1      45.105975 51.120105 60.141300
 443  1      3.007065 0.000000 9.021195
 444  1      21.049455 66.155430 63.148365
 445  1      12.028260 3.007065 51.120105
 446  1      69.162495 21.049455 36.084780
 447  1      60.141300 18.042390 66.155430
 448  1      60.141300 9.021195 63.148365
 449  1      39.091845 60.141300 15.035325
 450  1      66.155430 69.162495 51.120105
 451  1      12.028260 27.063585 39.091845
 452  1      51.120105 6.014130 69.162495
 453  1      33.077715 63.148365 36.084780
 454  1      9.021195 69.162495 30.070650
 455  1      57.134235 30.070650 21.049455
 456  1      24.056520 63.148365 15.035325
 457  1      51.120105 57.134235 18.042390
 458  1      69.162495 15.035325 12.028260
 459  1      18.042390 57.134235 63.148365
 460  1      9.021195 9.021195 66.155430
 461  1      45.105975 39.091845 6.014130
 462  1      6.014130 39.091845 33.077715
 463  1      63.148365 51.120105 60.141300
 464  1      54.127170 63.148365 69.162495
 465  1      0.000000 66.155430 0.000000
 466  1      3.007065 9.021195 12.028260
 467  1      54.127170 18.042390 6.014130
 468  1      63.148365 0.000000 33.077715
 469  1      54.127170 12.028260 0.000000
 470  1      57.134235 3.007065 60.141300
 471  1      27.063585 27.063585 6.014130
 472  1      18.042390 15.035325 33.077715
 473  1      36.084780 48.113040 12.028260
 474  1      51.120105 0.000000 51.120105
 475  1      36.084780 57.134235 57.134235
 476  1      27.063585 60.141300 15.035325
 477  1      18.042390 42.098910 0.000000
 478  1      39.091845 33.077715 36.084780
 479  1      0.000000 15.035325 21.049455
 480  1      63.148365 24.056520 51.120105
 481  1      27.063585 42.098910 63.148365
 482  1      69.162495 30.070650 45.105975
 483  1      18.042390 60.141300 48.113040
 484  1      9.021195 51.120105 18.042390
 485  1      48.113040 69.162495 27.063585
 486  1      63.148365 33.077715 24.056520
 487  1      48.113040 6.014130 36.084780
 488  1      57.134235 9.021195 18.042390
 489  1      45.105975 0.000000 51.120105
 490  1      69.162495 57.134235 0.000000
 491  1      18.042390 33.077715 45.105975
 492  1      33.077715 51.120105 66.155430
 493  1      30.070650 30.070650 24.056520
 494  1      3.007065 36.084780 21.049455
 495  1      12.028260 57.134235 45.105975
 496  1      39.091845 51.120105 0.000000
 497  1      60.141300 45.105975 63.148365
 498  1      12.028260 33.077715 15.035325
 499  1      48.113040 51.120105 33.077715
 500  1      45.105975 66.155430 57.134235
 501  1      18.042390 48.113040 42.098910
 502  1      0.000000 33.077715 51.120105
 503  1      51.120105 3.007065 12.028260
 504  1      48.113040 21.049455 57.134235
 505  1      21.049455 57.134235 30.070650
 506  1      66.155430 21.049455 57.134235
 507  1      24.056520 9.021195 69.162495
 508  1      27.063585 36.084780 69.162495
 509  1      60.141300 12.028260 42.098910
 510  1      6.014130 33.077715 39.091845
 511  1      66.155430 3.007065 39.091845
 512  1      24.056520 69.162495 45.105975
 513  1      69.162495 60.141300 3.007065
 514  1      15.035325 12.028260 57.134235
 515  1      48.113040 36.084780 42.098910
 516  1      57.134235 30.070650 63.148365
 517  1      42.098910 12.028260 54.127170
 518  1      42.098910 66.155430 54.127170
 519  1      60.141300 30.070650 12.028260
 520  1      66.155430 18.042390 6.014130
 521  1      27.063585 54.127170 21.049455
 522  1      42.098910 9.021195 3.007065
 523  1      12.028260 54.127170 30.070650
 524  1      63.148365 36.084780 51.120105
 525  1      12.028260 48.113040 36.084780
 526  1      21.049455 63.148365 48.113040
 527  1      30.070650 18.042390 6.014130
 528  1      18.042390 39.091845 63.148365
 529  1      33.077715 0.000000 51.120105
 530  1      48.113040 33.077715 69.162495
 531  1      39.091845 30.070650 9.021195
 532  1      9.021195 54.127170 15.035325
 533  1      45.105975 9.021195 30.070650
 534  1      60.141300 0.000000 66.155430
 535  1      57.134235 66.155430 3.007065
 536  1      42.098910 51.120105 39.091845
 537  1      69.162495 9.021195 42.098910
 538  1      48.113040 6.014130 42.098910
 539  1      45.105975 9.021195 12.028260
 540  1      39.091845 51.120105 6.014130
 541  1      21.049455 12.028260 9.021195
 542  1      57.134235 45.105975 12.028260
 543  1      42.098910 57.134235 57.134235
 544  1      24.056520 12.028260 48.113040
 545  1      0.000000 57.134235 27.063585
 546  1      39.091845 66.155430 9.021195
 547  1      9.021195 6.014130 39.091845
 548  1      12.028260 54.127170 66.155430
 549  1      30.070650 21.049455 57.134235
 550  1      18.042390 57.134235 3.007065
 551  1      12.028260 54.127170 6.014130
 552  1      57.134235 33.077715 30.070650
 553  1      6.014130 0.000000 6.014130
 554  1      60.141300 54.127170 54.127170
 555  1      48.113040 0.000000 36.084780
 556  1      42.098910 18.042390 12.028260
 557  1      39.091845 42.098910 9.021195
 558  1      48.113040 36.084780 66.155430
 559  1      69.162495 39.091845 42.098910
 560  1      6.014130 33.077715 45.105975
 561  1      45.105975 12.028260 9.021195
 562  1      24.056520 21.049455 27.063585
 563  1      15.035325 15.035325 30.070650
 564  1      48.113040 9.021195 39.091845
 565  1      54.127170 21.049455 63.148365
 566  1      12.028260 54.127170 0.000000
 567  1      63.148365 33.077715 54.127170
 568  1      63.148365 30.070650 51.120105
 569  1      45.105975 48.113040 69.162495
 570  1      69.162495 54.127170 3.007065
 571  1      0.000000 54.127170 0.000000
 572  1      54.127170 63.148365 39.091845
 573  1      69.162495 39.091845 54.127170
 574  1      42.098910 15.035325 9.021195
 575  1      66.155430 60.141300 30.070650
 576  1      18.042390 21.049455 21.049455
 577  1      6.014130 45.105975 51.120105
 578  1      42.098910 48.113040 54.127170
 579  1      0.000000 63.148365 15.035325
 580  1      48.113040 57.134235 9.021195
 581  1      9.021195 21.049455 18.042390
 582  1      24.056520 15.035325 69.162495
 583  1      18.042390 24.056520 24.056520
 584  1      12.028260 66.155430 60.141300
 585  1      18.042390 66.155430 60.141300
 586  1      69.162495 30.070650 63.148365
 587  1      0.000000 69.162495 45.105975
 588  1      36.084780 63.148365 45.105975
 589  1      15.035325 12.028260 21.049455
 590  1      39.091845 12.028260 69.162495
 591  1      63.148365 45.105975 42.098910
 592  1      27.063585 45.105975 54.127170
 593  1      66.155430 36.084780 24.056520
 594  1      21.049455 60.141300 27.063585
 595  1      63.148365 12.028260 45.105975
 596  1      15.035325 21.049455 12.028260
 597  1      9.021195 45.105975 54.127170
 598  1      12.028260 60.141300 30.070650
 599  1      30.070650 6.014130 0.000000
 600  1      12.028260 30.070650 24.056520
 601  1      15.035325 18.042390 63.148365
 602  1      6.014130 12.028260 36.084780
 603  1      0.000000 15.035325 51.120105
 604  1      33.077715 9.021195 48.113040
 605  1      63.148365 21.049455 48.113040
 606  1      60.141300 60.141300 30.070650
 607  1      9.021195 45.105975 0.000000
 608  1      15.035325 54.127170 45.105975
 609  1      36.084780 9.021195 45.105975
 610  1      0.000000 24.056520 24.056520
 611  1      45.105975 21.049455 36.084780
 612  1      42.098910 24.056520 42.098910
 613  1      48.113040 9.021195 33.077715
 614  1      45.105975 45.105975 42.098910
 615  1      39.091845 30.070650 51.120105
 616  1      63.148365 30.070650 45.105975
 617  1      36.084780 0.000000 0.000000
 618  1      30.070650 27.063585 9.021195
 619  1      36.084780 21.049455 39.091845
 620  1      27.063585 30.070650 45.105975
 621  1      27.063585 66.155430 33.077715
 622  1      54.127170 63.148365 21.049455
 623  1      6.014130 30.070650 0.000000
 624  1      6.014130 45.105975 63.148365
 625  1      39.091845 39.091845 60.141300
 626  1      27.063585 3.007065 30.070650
 627  1      21.049455 9.021195 12.028260
 628  1      39.091845 60.141300 27.063585
 629  1      3.007065 51.120105 30.070650
 630  1      69.162495 36.084780 57.134235
 631  1      48.113040 51.120105 3.007065
 632  1      0.000000 60.141300 0.000000
 633  1      36.084780 57.134235 15.035325
 634  1      42.098910 24.056520 30.070650
 635  1      66.155430 33.077715 45.105975
 636  1      9.021195 48.113040 63.148365
 637  1      12.028260 6.014130 42.098910
 638  1      57.134235 45.105975 66.155430
 639  1      33.077715 9.021195 24.056520
 640  1      3.007065 18.042390 9.021195
 641  1      36.084780 69.162495 33.077715
 642  1      51.120105 18.042390 9.021195
 643  1      27.063585 69.162495 66.155430
 644  1      18.042390 48.113040 24.056520
 645  1      6.014130 45.105975 3.007065
 646  1      63.148365 21.049455 0.000000
 647  1      54.127170 9.021195 3.007065
 648  1      66.155430 57.134235 51.120105
 649  1      66.155430 24.056520 54.127170
 650  1      54.127170 45.105975 3.007065
 651  1      63.148365 33.077715 66.155430
 652  1      63.148365 39.091845 0.000000
 653  1      21.049455 42.098910 51.120105
 654  1      48.113040 12.028260 36.084780
 655  1      42.098910 21.049455 33.077715
 656  1      36.084780 9.021195 15.035325
 657  1      48.113040 39.091845 21.049455
 658  1      27.063585 48.113040 3.007065
 659  1      15.035325 45.105975 24.056520
 660  1      33.077715 6.014130 45.105975
 661  1      21.049455 0.000000 33.077715
 662  1      9.021195 69.162495 12.028260
 663  1      27.063585 3.007065 6.014130
 664  1      60.141300 30.070650 60.141300
 665  1      27.063585 42.098910 15.035325
 666  1      27.063585 36.084780 39.091845
 667  1      18.042390 30.070650 12.028260
 668  1      0.000000 6.014130 6.014130
 669  1      54.127170 12.028260 66.155430
 670  1      39.091845 39.091845 12.028260
 671  1      21.049455 0.000000 51.120105
 672  1      6.014130 54.127170 30.070650
 673  1      51.120105 27.063585 36.084780
 674  1      54.127170 63.148365 27.063585
 675  1      15.035325 48.113040 9.021195
 676  1      51.120105 0.000000 27.063585
 677  1      18.042390 15.035325 27.063585
 678  1      9.021195 51.120105 60.141300
 679  1      48.113040 57.134235 33.077715
 680  1      21.049455 66.155430 3.007065
 681  1      6.014130 66.155430 54.127170
 682  1      6.014130 21.049455 45.105975
 683  1      3.007065 51.120105 0.000000
 684  1      48.113040 33.077715 21.049455
 685  1      63.148365 36.084780 45.105975
 686  1      24.056520 69.162495 57.134235
 687  1      21.049455 54.127170 51.120105
 688  1      12.028260 60.141300 60.141300
 689  1      42.098910 18.042390 48.113040
 690  1      36.084780 51.120105 3.007065
 691  1      6.014130 51.120105 57.134235
 692  1      45.105975 21.049455 60.141300
 693  1      15.035325 27.063585 60.141300
 694  1      39.091845 18.042390 3.007065
 695  1      9.021195 36.084780 39.091845
 696  1      51.120105 6.014130 39.091845
 697  1      18.042390 33.077715 27.063585
 698  1      18.042390 27.063585 9.021195
 699  1      45.105975 24.056520 57.134235
 700  1      0.000000 15.035325 9.021195