# Converted from POSCAR to lammps format

9216 atoms
3 atom types

0.000000   69.000687   xlo xhi
0.000000   59.756350   ylo yhi
0.000000   69.950310   zlo zhi

  0.000000    0.000000    0.000000   xy xz yz

Atoms

   1  1      2.295202 1.325135 1.732093
   2  1      64.823761 10.037689 15.752129
   3  1      62.670803 8.794680 1.732093
   4  1      28.170460 8.794680 54.194824
   5  1      30.323414 10.037689 68.214859
   6  1      30.326731 12.529451 1.732093
   7  1      32.479687 13.772461 15.752129
   8  1      62.667492 6.302917 68.214859
   9  1      60.514530 5.059907 54.194824
  10  1      30.326731 12.529451 19.219671
  11  1      32.479687 13.772461 33.239704
  12  1      30.326731 12.529451 36.707245
  13  1      32.479687 13.772461 50.727283
  14  1      62.667492 6.302917 50.727283
  15  1      60.514530 5.059907 36.707245
  16  1      30.326731 12.529451 54.194824
  17  1      32.479687 13.772461 68.214859
  18  1      62.667492 6.302917 33.239704
  19  1      32.483002 16.264223 1.732093
  20  1      34.635956 17.507233 15.752129
  21  1      30.323414 10.037689 50.727283
  22  1      28.170460 8.794680 36.707245
  23  1      30.323414 10.037689 33.239704
  24  1      54.045719 16.264223 36.707245
  25  1      23.857918 1.325135 54.194824
  26  1      26.010872 2.568146 68.214859
  27  1      66.980034 13.772461 15.752129
  28  1      64.827072 12.529451 1.732093
  29  1      26.014189 5.059907 1.732093
  30  1      28.167143 6.302917 15.752129
  31  1      26.014189 5.059907 19.219671
  32  1      28.167143 6.302917 33.239704
  33  1      64.823761 10.037689 68.214859
  34  1      60.514530 5.059907 19.219671
  35  1      62.670803 8.794680 54.194824
  36  1      28.167143 6.302917 50.727283
  37  1      64.823761 10.037689 50.727283
  38  1      26.014189 5.059907 54.194824
  39  1      28.167143 6.302917 68.214859
  40  1      62.670803 8.794680 36.707245
  41  1      28.170460 8.794680 1.732093
  42  1      30.323414 10.037689 15.752129
  43  1      64.823761 10.037689 33.239704
  44  1      62.670803 8.794680 19.219671
  45  1      26.014189 5.059907 36.707245
  46  1      32.483002 16.264223 19.219671
  47  1      34.635956 17.507233 33.239704
  48  1      62.667492 6.302917 15.752129
  49  1      58.358261 1.325135 1.732093
  50  1      36.795544 23.733767 36.707245
  51  1      38.948498 24.976778 50.727283
  52  1      19.542061 58.589725 68.214859
  53  1      17.389099 57.346718 54.194824
  54  1      36.795544 23.733767 54.194824
  55  1      38.948498 24.976778 68.214859
  56  1      38.951817 27.468538 1.732093
  57  1      41.104771 28.711550 15.752129
  58  1      38.948498 24.976778 33.239704
  59  1      19.542061 58.589725 50.727283
  60  1      38.951817 27.468538 19.219671
  61  1      41.104771 28.711550 33.239704
  62  1      38.951817 27.468538 36.707245
  63  1      41.104771 28.711550 50.727283
  64  1      19.542061 58.589725 33.239704
  65  1      17.389099 57.346718 19.219671
  66  1      38.951817 27.468538 54.194824
  67  1      41.104771 28.711550 68.214859
  68  1      41.108089 31.203312 1.732093
  69  1      17.389099 57.346718 36.707245
  70  1      26.010872 2.568146 50.727283
  71  1      36.795544 23.733767 19.219671
  72  1      38.948498 24.976778 15.752129
  73  1      60.514530 5.059907 1.732093
  74  1      32.483002 16.264223 36.707245
  75  1      34.635956 17.507233 50.727283
  76  1      32.483002 16.264223 54.194824
  77  1      34.635956 17.507233 68.214859
  78  1      60.511219 2.568146 68.214859
  79  1      58.358261 1.325135 54.194824
  80  1      34.639275 19.998995 1.732093
  81  1      36.792229 21.242004 15.752129
  82  1      60.511219 2.568146 15.752129
  83  1      34.639275 19.998995 19.219671
  84  1      60.511219 2.568146 50.727283
  85  1      58.358261 1.325135 36.707245
  86  1      34.639275 19.998995 36.707245
  87  1      36.792229 21.242004 50.727283
  88  1      34.639275 19.998995 54.194824
  89  1      36.792229 21.242004 68.214859
  90  1      60.511219 2.568146 33.239704
  91  1      58.358261 1.325135 19.219671
  92  1      36.795544 23.733767 1.732093
  93  1      36.792229 21.242004 33.239704
  94  1      43.261044 32.446323 15.752129
  95  1      23.857918 1.325135 36.707245
  96  1      66.980034 13.772461 33.239704
  97  1      43.264359 42.407627 1.732093
  98  1      45.417313 43.650639 15.752129
  99  1      2.295204 23.733767 19.219671
 100  1      43.264359 42.407627 19.219671
 101  1      45.417313 43.650639 33.239704
 102  1      4.448158 24.976778 15.752129
 103  1      2.295204 23.733767 1.732093
 104  1      43.264359 42.407627 36.707245
 105  1      45.417313 43.650639 50.727283
 106  1      43.264359 42.407627 54.194824
 107  1      45.417313 43.650639 68.214859
 108  1      2.291885 21.242004 68.214859
 109  1      0.138931 19.998995 54.194824
 110  1      45.420628 46.142399 1.732093
 111  1      47.573586 47.385410 15.752129
 112  1      45.420628 46.142399 19.219671
 113  1      47.573586 47.385410 33.239704
 114  1      2.291885 21.242004 50.727283
 115  1      0.138931 19.998995 36.707245
 116  1      4.448158 24.976778 33.239704
 117  1      43.261044 39.915867 68.214859
 118  1      41.108086 38.672855 54.194824
 119  1      2.295204 23.733767 36.707245
 120  1      41.104771 36.181095 15.752129
 121  1      6.604431 28.711550 33.239704
 122  1      4.451469 27.468538 19.219671
 123  1      38.951817 34.938084 19.219671
 124  1      41.104771 36.181095 33.239704
 125  1      38.951817 34.938084 36.707245
 126  1      41.104771 36.181095 50.727283
 127  1      6.604431 28.711550 15.752129
 128  1      4.451469 27.468538 1.732093
 129  1      45.420628 46.142399 36.707245
 130  1      38.951817 34.938084 54.194824
 131  1      41.108086 38.672855 1.732093
 132  1      43.261044 39.915867 15.752129
 133  1      4.448158 24.976778 68.214859
 134  1      2.295204 23.733767 54.194824
 135  1      41.108086 38.672855 19.219671
 136  1      43.261044 39.915867 33.239704
 137  1      41.108086 38.672855 36.707245
 138  1      43.261044 39.915867 50.727283
 139  1      4.448158 24.976778 50.727283
 140  1      41.104771 36.181095 68.214859
 141  1      47.573586 47.385410 50.727283
 142  1      45.420628 46.142399 54.194824
 143  1      47.573586 47.385410 68.214859
 144  1      49.733170 53.611946 54.194824
 145  1      51.886127 54.854954 68.214859
 146  1      51.889442 57.346718 1.732093
 147  1      54.042400 58.589725 15.752129
 148  1      0.135620 17.507233 15.752129
 149  1      66.983345 16.264223 1.732093
 150  1      51.889442 57.346718 19.219671
 151  1      54.042400 58.589725 33.239704
 152  1      66.980034 13.772461 68.214859
 153  1      66.983345 16.264223 19.219671
 154  1      51.889442 57.346718 36.707245
 155  1      64.827072 12.529451 54.194824
 156  1      51.889442 57.346718 54.194824
 157  1      54.042400 58.589725 68.214859
 158  1      66.980034 13.772461 50.727283
 159  1      64.827072 12.529451 36.707245
 160  1      23.857918 1.325135 1.732093
 161  1      26.010872 2.568146 15.752129
 162  1      23.857918 1.325135 19.219671
 163  1      26.010872 2.568146 33.239704
 164  1      54.042400 58.589725 50.727283
 165  1      64.827072 12.529451 19.219671
 166  1      0.135620 17.507233 33.239704
 167  1      49.733170 53.611946 36.707245
 168  1      2.291885 21.242004 33.239704
 169  1      0.138931 19.998995 19.219671
 170  1      47.576900 49.877174 1.732093
 171  1      49.729858 51.120182 15.752129
 172  1      2.291885 21.242004 15.752129
 173  1      47.576900 49.877174 19.219671
 174  1      49.729858 51.120182 33.239704
 175  1      0.138931 19.998995 1.732093
 176  1      47.576900 49.877174 36.707245
 177  1      51.886127 54.854954 50.727283
 178  1      49.729858 51.120182 50.727283
 179  1      66.983345 16.264223 54.194824
 180  1      47.576900 49.877174 54.194824
 181  1      49.729858 51.120182 68.214859
 182  1      49.733170 53.611946 1.732093
 183  1      51.886127 54.854954 15.752129
 184  1      0.135620 17.507233 50.727283
 185  1      66.983345 16.264223 36.707245
 186  1      49.733170 53.611946 19.219671
 187  1      51.886127 54.854954 33.239704
 188  1      0.135620 17.507233 68.214859
 189  1      38.951817 34.938084 1.732093
 190  1      19.542061 58.589725 15.752129
 191  1      41.108089 31.203312 19.219671
 192  1      6.604431 36.181095 50.727283
 193  1      4.451477 34.938084 36.707245
 194  1      32.483002 8.794680 1.732093
 195  1      34.635960 10.037689 15.752129
 196  1      32.483002 8.794680 19.219671
 197  1      34.635960 10.037689 33.239704
 198  1      6.604431 36.181095 33.239704
 199  1      4.451477 34.938084 19.219671
 200  1      32.483002 8.794680 36.707245
 201  1      34.635960 10.037689 50.727283
 202  1      32.483002 8.794680 54.194824
 203  1      34.635960 10.037689 68.214859
 204  1      6.604431 36.181095 15.752129
 205  1      4.451477 34.938084 1.732093
 206  1      34.639271 12.529451 1.732093
 207  1      36.792229 13.772461 15.752129
 208  1      34.639271 12.529451 19.219671
 209  1      36.792229 13.772461 33.239704
 210  1      4.448158 32.446323 68.214859
 211  1      32.479687 6.302917 68.214859
 212  1      30.326731 5.059907 54.194824
 213  1      4.451477 34.938084 54.194824
 214  1      32.479687 6.302917 50.727283
 215  1      28.170460 1.325135 1.732093
 216  1      30.323416 2.568146 15.752129
 217  1      8.760704 39.915867 50.727283
 218  1      6.607742 38.672855 36.707245
 219  1      28.170460 1.325135 19.219671
 220  1      30.323416 2.568146 33.239704
 221  1      28.170460 1.325135 36.707245
 222  1      30.323416 2.568146 50.727283
 223  1      8.760704 39.915867 33.239704
 224  1      2.295204 31.203312 54.194824
 225  1      6.607742 38.672855 19.219671
 226  1      30.323416 2.568146 68.214859
 227  1      30.326731 5.059907 1.732093
 228  1      32.479687 6.302917 15.752129
 229  1      8.760704 39.915867 15.752129
 230  1      6.607742 38.672855 1.732093
 231  1      30.326731 5.059907 19.219671
 232  1      32.479687 6.302917 33.239704
 233  1      6.604431 36.181095 68.214859
 234  1      30.326731 5.059907 36.707245
 235  1      28.170460 1.325135 54.194824
 236  1      34.639271 12.529451 36.707245
 237  1      36.792229 13.772461 50.727283
 238  1      4.448158 32.446323 50.727283
 239  1      0.138931 27.468538 36.707245
 240  1      38.951817 19.998995 54.194824
 241  1      41.104771 21.242004 68.214859
 242  1      2.291885 28.711550 33.239704
 243  1      41.108086 23.733767 1.732093
 244  1      43.261044 24.976778 15.752129
 245  1      0.138931 27.468538 19.219671
 246  1      41.108086 23.733767 19.219671
 247  1      43.261044 24.976778 33.239704
 248  1      2.291885 28.711550 50.727283
 249  1      2.291885 28.711550 15.752129
 250  1      41.108086 23.733767 36.707245
 251  1      43.261044 24.976778 50.727283
 252  1      41.108086 23.733767 54.194824
 253  1      43.261044 24.976778 68.214859
 254  1      0.135620 24.976778 68.214859
 255  1      66.983345 23.733767 54.194824
 256  1      43.264359 27.468538 1.732093
 257  1      45.417313 28.711550 15.752129
 258  1      43.264359 27.468538 19.219671
 259  1      0.138931 27.468538 1.732093
 260  1      58.354942 58.589725 68.214859
 261  1      41.104771 21.242004 50.727283
 262  1      41.104771 21.242004 33.239704
 263  1      34.639271 12.529451 54.194824
 264  1      36.792229 13.772461 68.214859
 265  1      2.295204 31.203312 36.707245
 266  1      36.795544 16.264223 1.732093
 267  1      38.948502 17.507233 15.752129
 268  1      4.448158 32.446323 33.239704
 269  1      2.295204 31.203312 19.219671
 270  1      36.795544 16.264223 19.219671
 271  1      38.948502 17.507233 33.239704
 272  1      38.951817 19.998995 36.707245
 273  1      36.795544 16.264223 36.707245
 274  1      4.448158 32.446323 15.752129
 275  1      2.295204 31.203312 1.732093
 276  1      36.795544 16.264223 54.194824
 277  1      38.948502 17.507233 68.214859
 278  1      38.951817 19.998995 1.732093
 279  1      41.104771 21.242004 15.752129
 280  1      2.291885 28.711550 68.214859
 281  1      0.138931 27.468538 54.194824
 282  1      38.951817 19.998995 19.219671
 283  1      38.948502 17.507233 50.727283
 284  1      17.389099 57.346718 1.732093
 285  1      56.201984 57.346718 54.194824
 286  1      8.760704 39.915867 68.214859
 287  1      47.573586 39.915867 33.239704
 288  1      15.229515 51.120182 68.214859
 289  1      13.076561 49.877174 54.194824
 290  1      45.420631 38.672855 36.707245
 291  1      47.573586 39.915867 50.727283
 292  1      15.229515 51.120182 50.727283
 293  1      45.420631 38.672855 54.194824
 294  1      47.573586 39.915867 68.214859
 295  1      13.076561 49.877174 36.707245
 296  1      47.576900 42.407627 1.732093
 297  1      49.729855 43.650639 15.752129
 298  1      15.229515 51.120182 33.239704
 299  1      13.076561 49.877174 19.219671
 300  1      47.576900 42.407627 19.219671
 301  1      49.729855 43.650639 33.239704
 302  1      47.576900 42.407627 36.707245
 303  1      49.729855 43.650639 50.727283
 304  1      15.229515 51.120182 15.752129
 305  1      13.076561 49.877174 1.732093
 306  1      45.420631 38.672855 19.219671
 307  1      47.573586 39.915867 15.752129
 308  1      45.420631 38.672855 1.732093
 309  1      15.232826 53.611946 1.732093
 310  1      43.261044 32.446323 33.239704
 311  1      17.385788 54.854954 68.214859
 312  1      41.108089 31.203312 36.707245
 313  1      43.261044 32.446323 50.727283
 314  1      15.232826 53.611946 54.194824
 315  1      41.108089 31.203312 54.194824
 316  1      43.261044 32.446323 68.214859
 317  1      17.385788 54.854954 50.727283
 318  1      15.232826 53.611946 36.707245
 319  1      47.576900 42.407627 54.194824
 320  1      43.264359 34.938084 1.732093
 321  1      43.264359 34.938084 19.219671
 322  1      45.417313 36.181095 33.239704
 323  1      17.385788 54.854954 33.239704
 324  1      15.232826 53.611946 19.219671
 325  1      43.264359 34.938084 36.707245
 326  1      45.417313 36.181095 50.727283
 327  1      43.264359 34.938084 54.194824
 328  1      45.417313 36.181095 68.214859
 329  1      17.385788 54.854954 15.752129
 330  1      45.417313 36.181095 15.752129
 331  1      49.729855 43.650639 68.214859
 332  1      49.733173 46.142399 1.732093
 333  1      51.886127 47.385410 15.752129
 334  1      54.045715 53.611946 1.732093
 335  1      56.198669 54.854954 15.752129
 336  1      54.045715 53.611946 19.219671
 337  1      56.198669 54.854954 33.239704
 338  1      10.916977 43.650639 50.727283
 339  1      8.764015 42.407627 36.707245
 340  1      54.045715 53.611946 36.707245
 341  1      56.198669 54.854954 50.727283
 342  1      54.045715 53.611946 54.194824
 343  1      8.764015 42.407627 54.194824
 344  1      56.198669 54.854954 68.214859
 345  1      8.764015 42.407627 19.219671
 346  1      56.201984 57.346718 1.732093
 347  1      58.354942 58.589725 15.752129
 348  1      10.916977 43.650639 15.752129
 349  1      56.201984 57.346718 19.219671
 350  1      58.354942 58.589725 33.239704
 351  1      8.764015 42.407627 1.732093
 352  1      56.201984 57.346718 36.707245
 353  1      58.354942 58.589725 50.727283
 354  1      10.916977 43.650639 33.239704
 355  1      6.607742 38.672855 54.194824
 356  1      10.916977 43.650639 68.214859
 357  1      51.889442 49.877174 54.194824
 358  1      13.073242 47.385410 68.214859
 359  1      10.920288 46.142399 54.194824
 360  1      49.733173 46.142399 19.219671
 361  1      51.886127 47.385410 33.239704
 362  1      49.733173 46.142399 36.707245
 363  1      51.886127 47.385410 50.727283
 364  1      13.073242 47.385410 50.727283
 365  1      10.920288 46.142399 36.707245
 366  1      49.733173 46.142399 54.194824
 367  1      54.042400 51.120182 68.214859
 368  1      51.886127 47.385410 68.214859
 369  1      51.889442 49.877174 1.732093
 370  1      54.042400 51.120182 15.752129
 371  1      10.920288 46.142399 19.219671
 372  1      51.889442 49.877174 19.219671
 373  1      54.042400 51.120182 33.239704
 374  1      13.073242 47.385410 15.752129
 375  1      10.920288 46.142399 1.732093
 376  1      51.889442 49.877174 36.707245
 377  1      54.042400 51.120182 50.727283
 378  1      13.073242 47.385410 33.239704
 379  1      4.451469 27.468538 36.707245
 380  1      38.948502 32.446323 68.214859
 381  1      36.795544 31.203312 54.194824
 382  1      26.010872 17.507233 15.752129
 383  1      2.291885 13.772461 15.752129
 384  1      0.138931 12.529451 1.732093
 385  1      23.857916 16.264223 19.219671
 386  1      26.010872 17.507233 33.239704
 387  1      0.135620 10.037689 68.214859
 388  1      23.857916 16.264223 36.707245
 389  1      26.010872 17.507233 50.727283
 390  1      66.983345 8.794680 54.194824
 391  1      23.857916 16.264223 54.194824
 392  1      26.010872 17.507233 68.214859
 393  1      0.135620 10.037689 50.727283
 394  1      66.983345 8.794680 36.707245
 395  1      26.014187 19.998995 1.732093
 396  1      28.167143 21.242004 15.752129
 397  1      26.014187 19.998995 19.219671
 398  1      28.167143 21.242004 33.239704
 399  1      0.135620 10.037689 33.239704
 400  1      66.983345 8.794680 19.219671
 401  1      23.857916 16.264223 1.732093
 402  1      23.854601 13.772461 68.214859
 403  1      21.701643 12.529451 54.194824
 404  1      0.138931 12.529451 19.219671
 405  1      21.698330 10.037689 15.752129
 406  1      4.448158 17.507233 15.752129
 407  1      19.545372 8.794680 19.219671
 408  1      21.698330 10.037689 33.239704
 409  1      2.295204 16.264223 1.732093
 410  1      19.545372 8.794680 36.707245
 411  1      21.698330 10.037689 50.727283
 412  1      2.291885 13.772461 68.214859
 413  1      0.138931 12.529451 54.194824
 414  1      26.014187 19.998995 36.707245
 415  1      19.545372 8.794680 54.194824
 416  1      21.701643 12.529451 1.732093
 417  1      23.854601 13.772461 15.752129
 418  1      2.291885 13.772461 50.727283
 419  1      0.138931 12.529451 36.707245
 420  1      21.701643 12.529451 19.219671
 421  1      23.854601 13.772461 33.239704
 422  1      21.701643 12.529451 36.707245
 423  1      23.854601 13.772461 50.727283
 424  1      2.291885 13.772461 33.239704
 425  1      21.698330 10.037689 68.214859
 426  1      28.167143 21.242004 50.727283
 427  1      26.014187 19.998995 54.194824
 428  1      28.167143 21.242004 68.214859
 429  1      30.326729 27.468538 54.194824
 430  1      32.479687 28.711550 68.214859
 431  1      32.483002 31.203312 1.732093
 432  1      34.635956 32.446323 15.752129
 433  1      64.823761 2.568146 68.214859
 434  1      62.670807 1.325135 54.194824
 435  1      32.483002 31.203312 19.219671
 436  1      34.635956 32.446323 33.239704
 437  1      32.483002 31.203312 36.707245
 438  1      64.827080 5.059907 1.732093
 439  1      34.635956 32.446323 50.727283
 440  1      62.670807 1.325135 36.707245
 441  1      32.483002 31.203312 54.194824
 442  1      34.635956 32.446323 68.214859
 443  1      64.823761 2.568146 33.239704
 444  1      34.639271 34.938084 1.732093
 445  1      36.792229 36.181095 15.752129
 446  1      62.670807 1.325135 19.219671
 447  1      34.639271 34.938084 19.219671
 448  1      36.792229 36.181095 33.239704
 449  1      64.823761 2.568146 50.727283
 450  1      19.545372 8.794680 1.732093
 451  1      66.980034 6.302917 15.752129
 452  1      30.326729 27.468538 36.707245
 453  1      0.135620 10.037689 15.752129
 454  1      66.983345 8.794680 1.732093
 455  1      28.170458 23.733767 1.732093
 456  1      30.323414 24.976778 15.752129
 457  1      28.170458 23.733767 19.219671
 458  1      30.323414 24.976778 33.239704
 459  1      66.980034 6.302917 68.214859
 460  1      64.827080 5.059907 54.194824
 461  1      28.170458 23.733767 36.707245
 462  1      32.479687 28.711550 50.727283
 463  1      30.323414 24.976778 50.727283
 464  1      28.170458 23.733767 54.194824
 465  1      30.323414 24.976778 68.214859
 466  1      64.827080 5.059907 36.707245
 467  1      30.326729 27.468538 1.732093
 468  1      32.479687 28.711550 15.752129
 469  1      66.980034 6.302917 33.239704
 470  1      64.827080 5.059907 19.219671
 471  1      30.326729 27.468538 19.219671
 472  1      32.479687 28.711550 33.239704
 473  1      66.980034 6.302917 50.727283
 474  1      64.823761 2.568146 15.752129
 475  1      2.295204 16.264223 19.219671
 476  1      19.542059 6.302917 68.214859
 477  1      10.916969 28.711550 33.239704
 478  1      8.764015 27.468538 19.219671
 479  1      36.795544 46.142399 36.707245
 480  1      38.948498 47.385410 50.727283
 481  1      36.795544 46.142399 54.194824
 482  1      38.948498 47.385410 68.214859
 483  1      10.916969 28.711550 15.752129
 484  1      8.764015 27.468538 1.732093
 485  1      38.951813 49.877174 1.732093
 486  1      41.104771 51.120182 15.752129
 487  1      38.951813 49.877174 19.219671
 488  1      41.104771 51.120182 33.239704
 489  1      8.760704 24.976778 68.214859
 490  1      6.607750 23.733767 54.194824
 491  1      38.951813 49.877174 36.707245
 492  1      41.104771 51.120182 50.727283
 493  1      8.760704 24.976778 50.727283
 494  1      38.951813 49.877174 54.194824
 495  1      41.104771 51.120182 68.214859
 496  1      38.948498 47.385410 33.239704
 497  1      36.795544 46.142399 19.219671
 498  1      38.948498 47.385410 15.752129
 499  1      36.795544 46.142399 1.732093
 500  1      32.483002 38.672855 36.707245
 501  1      34.635956 39.915867 50.727283
 502  1      13.073242 32.446323 33.239704
 503  1      10.920288 31.203312 19.219671
 504  1      32.483002 38.672855 54.194824
 505  1      34.635956 39.915867 68.214859
 506  1      34.639271 42.407627 1.732093
 507  1      36.792229 43.650639 15.752129
 508  1      13.073242 32.446323 15.752129
 509  1      6.607750 23.733767 36.707245
 510  1      10.920288 31.203312 1.732093
 511  1      36.792229 43.650639 33.239704
 512  1      10.916969 28.711550 68.214859
 513  1      34.639271 42.407627 36.707245
 514  1      36.792229 43.650639 50.727283
 515  1      8.764015 27.468538 54.194824
 516  1      34.639271 42.407627 54.194824
 517  1      36.792229 43.650639 68.214859
 518  1      10.916969 28.711550 50.727283
 519  1      8.764015 27.468538 36.707245
 520  1      34.639271 42.407627 19.219671
 521  1      41.108086 53.611946 1.732093
 522  1      43.261044 54.854954 15.752129
 523  1      8.760704 24.976778 33.239704
 524  1      4.451477 19.998995 19.219671
 525  1      15.232830 1.325135 19.219671
 526  1      17.385786 2.568146 33.239704
 527  1      6.604431 21.242004 15.752129
 528  1      4.451477 19.998995 1.732093
 529  1      15.232830 1.325135 36.707245
 530  1      17.385786 2.568146 50.727283
 531  1      15.232830 1.325135 54.194824
 532  1      17.385786 2.568146 68.214859
 533  1      17.385786 2.568146 15.752129
 534  1      4.448158 17.507233 68.214859
 535  1      17.389101 5.059907 1.732093
 536  1      19.542059 6.302917 15.752129
 537  1      17.389101 5.059907 19.219671
 538  1      19.542059 6.302917 33.239704
 539  1      4.448158 17.507233 50.727283
 540  1      2.295204 16.264223 36.707245
 541  1      17.389101 5.059907 36.707245
 542  1      19.542059 6.302917 50.727283
 543  1      17.389101 5.059907 54.194824
 544  1      2.295204 16.264223 54.194824
 545  1      4.448158 17.507233 33.239704
 546  1      15.232830 1.325135 1.732093
 547  1      45.417313 58.589725 68.214859
 548  1      6.607750 23.733767 19.219671
 549  1      41.108086 53.611946 19.219671
 550  1      43.261044 54.854954 33.239704
 551  1      41.108086 53.611946 36.707245
 552  1      43.261044 54.854954 50.727283
 553  1      8.760704 24.976778 15.752129
 554  1      6.607750 23.733767 1.732093
 555  1      41.108086 53.611946 54.194824
 556  1      43.261044 54.854954 68.214859
 557  1      6.604431 21.242004 33.239704
 558  1      43.264355 57.346718 1.732093
 559  1      6.604431 21.242004 68.214859
 560  1      4.451477 19.998995 54.194824
 561  1      43.264355 57.346718 19.219671
 562  1      45.417313 58.589725 33.239704
 563  1      43.264355 57.346718 36.707245
 564  1      45.417313 58.589725 50.727283
 565  1      6.604431 21.242004 50.727283
 566  1      4.451477 19.998995 36.707245
 567  1      43.264355 57.346718 54.194824
 568  1      45.417313 58.589725 15.752129
 569  1      62.670807 1.325135 1.732093
 570  1      34.639271 34.938084 36.707245
 571  1      36.792229 36.181095 50.727283
 572  1      13.073242 39.915867 50.727283
 573  1      10.920288 38.672855 36.707245
 574  1      26.014187 12.529451 36.707245
 575  1      28.167143 13.772461 50.727283
 576  1      26.014187 12.529451 54.194824
 577  1      28.167143 13.772461 68.214859
 578  1      13.073242 39.915867 33.239704
 579  1      10.920288 38.672855 19.219671
 580  1      28.170458 16.264223 1.732093
 581  1      30.323414 17.507233 15.752129
 582  1      13.073242 39.915867 15.752129
 583  1      28.170458 16.264223 19.219671
 584  1      30.323414 17.507233 33.239704
 585  1      10.920288 38.672855 1.732093
 586  1      28.170458 16.264223 36.707245
 587  1      30.323414 17.507233 50.727283
 588  1      10.916977 36.181095 68.214859
 589  1      8.764015 34.938084 54.194824
 590  1      28.170458 16.264223 54.194824
 591  1      28.167143 13.772461 33.239704
 592  1      26.014187 12.529451 19.219671
 593  1      28.167143 13.772461 15.752129
 594  1      26.014187 12.529451 1.732093
 595  1      21.701645 5.059907 36.707245
 596  1      23.854601 6.302917 50.727283
 597  1      15.229515 43.650639 50.727283
 598  1      13.076561 42.407627 36.707245
 599  1      21.701645 5.059907 54.194824
 600  1      23.854601 6.302917 68.214859
 601  1      15.229515 43.650639 33.239704
 602  1      23.857916 8.794680 1.732093
 603  1      26.010872 10.037689 15.752129
 604  1      30.323414 17.507233 68.214859
 605  1      13.076561 42.407627 19.219671
 606  1      26.010872 10.037689 33.239704
 607  1      15.229515 43.650639 15.752129
 608  1      13.076561 42.407627 1.732093
 609  1      23.857916 8.794680 36.707245
 610  1      26.010872 10.037689 50.727283
 611  1      23.857916 8.794680 54.194824
 612  1      26.010872 10.037689 68.214859
 613  1      13.073242 39.915867 68.214859
 614  1      10.920288 38.672855 54.194824
 615  1      23.857916 8.794680 19.219671
 616  1      30.326729 19.998995 1.732093
 617  1      32.479687 21.242004 15.752129
 618  1      10.916977 36.181095 50.727283
 619  1      36.792229 28.711550 15.752129
 620  1      34.639271 27.468538 19.219671
 621  1      36.792229 28.711550 33.239704
 622  1      8.760704 32.446323 33.239704
 623  1      6.607742 31.203312 19.219671
 624  1      34.639271 27.468538 36.707245
 625  1      36.792229 28.711550 50.727283
 626  1      34.639271 27.468538 54.194824
 627  1      36.792229 28.711550 68.214859
 628  1      34.639271 27.468538 1.732093
 629  1      8.760704 32.446323 15.752129
 630  1      36.795544 31.203312 1.732093
 631  1      38.948502 32.446323 15.752129
 632  1      36.795544 31.203312 19.219671
 633  1      38.948502 32.446323 33.239704
 634  1      6.604431 28.711550 68.214859
 635  1      4.451469 27.468538 54.194824
 636  1      36.795544 31.203312 36.707245
 637  1      38.948502 32.446323 50.727283
 638  1      6.604431 28.711550 50.727283
 639  1      6.607742 31.203312 1.732093
 640  1      23.854601 6.302917 33.239704
 641  1      6.607742 31.203312 36.707245
 642  1      34.635956 24.976778 68.214859
 643  1      8.764015 34.938084 36.707245
 644  1      30.326729 19.998995 19.219671
 645  1      32.479687 21.242004 33.239704
 646  1      30.326729 19.998995 36.707245
 647  1      32.479687 21.242004 50.727283
 648  1      10.916977 36.181095 33.239704
 649  1      8.764015 34.938084 19.219671
 650  1      30.326729 19.998995 54.194824
 651  1      32.479687 21.242004 68.214859
 652  1      8.760704 32.446323 50.727283
 653  1      32.483002 23.733767 1.732093
 654  1      10.916977 36.181095 15.752129
 655  1      8.764015 34.938084 1.732093
 656  1      32.483002 23.733767 19.219671
 657  1      34.635956 24.976778 33.239704
 658  1      8.760704 32.446323 68.214859
 659  1      32.483002 23.733767 36.707245
 660  1      34.635956 24.976778 50.727283
 661  1      6.607742 31.203312 54.194824
 662  1      32.483002 23.733767 54.194824
 663  1      34.635956 24.976778 15.752129
 664  1      21.701645 5.059907 19.219671
 665  1      13.076561 42.407627 54.194824
 666  1      15.229515 43.650639 68.214859
 667  1      21.698334 54.854954 68.214859
 668  1      19.545372 53.611946 54.194824
 669  1      38.951813 42.407627 54.194824
 670  1      41.104771 43.650639 68.214859
 671  1      41.108086 46.142399 1.732093
 672  1      43.261044 47.385410 15.752129
 673  1      21.698334 54.854954 50.727283
 674  1      19.545372 53.611946 36.707245
 675  1      41.108086 46.142399 19.219671
 676  1      41.104771 43.650639 50.727283
 677  1      43.261044 47.385410 33.239704
 678  1      43.261044 47.385410 50.727283
 679  1      21.698334 54.854954 33.239704
 680  1      19.545372 53.611946 19.219671
 681  1      41.108086 46.142399 54.194824
 682  1      43.261044 47.385410 68.214859
 683  1      43.264359 49.877174 1.732093
 684  1      45.417313 51.120182 15.752129
 685  1      21.698334 54.854954 15.752129
 686  1      19.545372 53.611946 1.732093
 687  1      41.108086 46.142399 36.707245
 688  1      43.264359 49.877174 19.219671
 689  1      38.951813 42.407627 36.707245
 690  1      41.104771 43.650639 33.239704
 691  1      34.639271 34.938084 54.194824
 692  1      36.792229 36.181095 68.214859
 693  1      23.854599 58.589725 68.214859
 694  1      21.701645 57.346718 54.194824
 695  1      36.795544 38.672855 1.732093
 696  1      38.948502 39.915867 15.752129
 697  1      36.795544 38.672855 19.219671
 698  1      38.948502 39.915867 33.239704
 699  1      23.854599 58.589725 50.727283
 700  1      21.701645 57.346718 1.732093