# Converted from POSCAR to lammps format

12442 atoms
3 atom types

0.000000   72.169560   xlo xhi
0.000000   72.169560   ylo yhi
0.000000   72.169560   zlo zhi

  0.000000    0.000000    0.000000   xy xz yz

Atoms

   1  1      71.453700 6.024700 23.875000
   2  1      65.953600 8.814580 63.664400
   3  1      69.467900 29.791200 2.581260
   4  1      5.688280 50.969800 63.179800
   5  1      24.286400 54.412900 60.338300
   6  1      42.001900 21.090100 44.996400
   7  1      11.598100 9.009030 50.672700
   8  1      54.005600 38.543700 45.103000
   9  1      57.469800 62.680100 54.199100
  10  1      60.384700 3.389350 39.139300
  11  1      3.027460 0.370646 14.996200
  12  1      39.293900 9.326090 60.365900
  13  1      18.273300 30.235600 35.743600
  14  1      68.100700 20.849400 17.879100
  15  1      68.944000 50.771600 18.571300
  16  1      54.716200 36.424500 72.088500
  17  1      60.383200 17.759700 12.324000
  18  1      41.779800 60.027600 5.984320
  19  1      36.234800 2.944550 68.497900
  20  1      54.228900 21.160500 69.430000
  21  1      35.974000 23.374600 60.953700
  22  1      15.454000 32.864900 18.098800
  23  1      66.648500 27.879700 38.848500
  24  1      14.753800 42.207400 63.767000
  25  1      29.708200 11.743500 65.953900
  26  1      27.042700 18.572200 39.078400
  27  1      8.681680 36.223100 26.821100
  28  1      30.369000 57.525200 39.208700
  29  1      44.921700 36.010000 32.614300
  30  1      36.068100 53.839900 54.295000
  31  1      66.072300 63.087400 69.841400
  32  1      8.372260 66.453300 9.058690
  33  1      15.019900 29.764500 69.725400
  34  1      68.922600 24.324600 32.798200
  35  1      41.953100 17.391200 35.890600
  36  1      48.237400 35.841000 72.123000
  37  1      45.048100 68.738600 42.170500
  38  1      66.120400 39.506600 8.621320
  39  1      69.285400 35.827800 51.119100
  40  1      66.229500 5.813320 18.406600
  41  1      57.299100 17.493100 9.219260
  42  1      38.968300 14.886100 30.040500
  43  1      5.862980 5.707620 36.128300
  44  1      29.888400 15.371800 44.901200
  45  1      32.945100 33.290500 41.855200
  46  1      15.171500 15.079100 24.113000
  47  1      8.889470 45.286800 66.478800
  48  1      56.791600 15.058800 60.444500
  49  1      29.837700 33.297400 8.873570
  50  1      68.929100 15.246200 71.908000
  51  1      54.537300 6.378760 17.979600
  52  1      69.345400 42.041200 27.035700
  53  1      63.128600 53.855500 9.631800
  54  1      24.319700 45.359500 32.732200
  55  1      21.035300 21.022000 54.008000
  56  1      9.325270 33.136300 30.445800
  57  1      5.946360 54.033800 5.772440
  58  1      63.401100 54.149700 15.659000
  59  1      0.235121 60.321700 36.139000
  60  1      29.675100 8.841500 50.584600
  61  1      33.627500 33.435200 17.113600
  62  1      26.923300 41.832600 33.299200
  63  1      12.133900 2.864110 63.123700
  64  1      57.402800 39.438000 54.285500
  65  1      33.078300 47.981700 21.231100
  66  1      32.980300 24.245200 9.092180
  67  1      27.308000 11.822000 21.889700
  68  1      33.296700 50.754600 12.057600
  69  1      63.051700 66.552000 56.691300
  70  1      3.031140 57.600600 30.131000
  71  1      36.262300 5.737050 71.935900
  72  1      54.583300 5.849860 30.570500
  73  1      50.821800 38.838400 12.321300
  74  1      0.534873 56.633400 20.955100
  75  1      60.539500 6.441700 60.085300
  76  1      65.803800 45.171000 15.338400
  77  1      45.242100 48.235700 14.464900
  78  1      57.324900 66.337200 33.214500
  79  1      23.654000 8.670910 14.922500
  80  1      39.305700 6.155300 44.917500
  81  1      8.809690 57.863200 30.440000
  82  1      32.680300 26.785300 35.815300
  83  1      17.658000 35.970300 23.771600
  84  1      60.538100 29.583000 23.850500
  85  1      11.645000 63.024500 39.144600
  86  1      26.771900 45.178100 11.958500
  87  1      41.813000 54.247700 23.533600
  88  1      24.222200 63.231100 20.474900
  89  1      33.396800 27.130300 53.921700
  90  1      27.375900 50.892200 66.304900
  91  1      17.898300 5.606190 0.289281
  92  1      38.891900 18.065300 62.896300
  93  1      27.040300 9.211020 36.286400
  94  1      11.726400 26.865300 2.396940
  95  1      42.021900 48.064300 17.653600
  96  1      69.261500 66.507700 21.214400
  97  1      60.161500 36.544800 30.563300
  98  1      56.651800 42.083700 32.905000
  99  1      47.995500 69.522000 15.186200
 100  1      8.773700 9.191730 47.940300
 101  1      5.716580 33.136700 9.018860
 102  1      23.858500 0.125230 36.119600
 103  1      27.270900 42.763300 20.766900
 104  1      24.327100 30.155100 5.825480
 105  1      51.016800 23.840100 27.321700
 106  1      21.241000 3.174210 24.321500
 107  1      6.110000 45.229100 39.207500
 108  1      57.759600 29.450500 68.966900
 109  1      30.159800 39.379000 63.215400
 110  1      24.236800 66.083800 23.945700
 111  1      69.344600 50.977000 48.090600
 112  1      12.282700 53.874700 54.170200
 113  1      60.304600 20.715800 26.630500
 114  1      32.904800 33.285700 66.309100
 115  1      44.731700 0.125303 14.529100
 116  1      27.244400 39.024800 36.128000
 117  1      18.072900 68.841200 57.233100
 118  1      63.273100 62.612300 0.626856
 119  1      3.417380 36.509100 44.567800
 120  1      45.379900 51.050500 29.974000
 121  1      66.303600 57.112600 15.149100
 122  1      39.129200 53.608000 44.904300
 123  1      60.346400 66.059900 66.980100
 124  1      45.506000 3.196590 54.372800
 125  1      54.387200 30.035000 42.207700
 126  1      36.323300 60.545600 24.201900
 127  1      48.430000 47.981200 54.035200
 128  1      21.320700 39.313600 17.618600
 129  1      38.954100 53.992300 20.431300
 130  1      39.159500 6.033750 63.239300
 131  1      5.533040 72.146400 30.347500
 132  1      5.738580 60.398100 6.206920
 133  1      24.125200 3.142130 2.768420
 134  1      30.175200 69.110200 20.922500
 135  1      65.734000 14.872400 62.947000
 136  1      24.051000 30.284800 66.046600
 137  1      35.847300 63.079800 33.540100
 138  1      3.738590 47.767100 63.378300
 139  1      33.413400 29.995300 21.128200
 140  1      66.015600 2.844300 63.603900
 141  1      11.580500 69.108300 27.324000
 142  1      36.028100 23.578000 5.200710
 143  1      29.658400 26.563100 45.075200
 144  1      38.977700 32.764000 47.874900
 145  1      33.330900 24.129000 27.380200
 146  1      36.334400 68.930600 15.075600
 147  1      48.081900 66.163900 35.965000
 148  1      3.285870 14.610400 24.378700
 149  1      9.406510 54.090700 62.951900
 150  1      8.795150 9.153410 18.111600
 151  1      66.271900 47.805300 12.305000
 152  1      3.049630 36.531100 2.639930
 153  1      48.274000 66.240500 0.346926
 154  1      12.036800 8.921590 62.990900
 155  1      42.527800 53.573900 60.372500
 156  1      44.628500 50.629500 54.032200
 157  1      39.064000 18.013800 45.150000
 158  1      27.321800 30.117700 14.522000
 159  1      32.819400 69.299200 17.596200
 160  1      5.872930 71.587600 54.437900
 161  1      57.076900 63.149800 30.034800
 162  1      20.902200 69.162600 47.909000
 163  1      3.065260 53.977700 63.140300
 164  1      69.019700 3.193580 60.296200
 165  1      11.631100 20.962700 15.220500
 166  1      60.316800 21.414400 39.221400
 167  1      63.246000 3.787250 36.108700
 168  1      21.034700 21.044100 18.480200
 169  1      15.101900 57.174100 60.139700
 170  1      23.869900 14.700100 57.106000
 171  1      45.206600 8.696410 42.015500
 172  1      14.802700 6.113810 50.762100
 173  1      48.313800 18.081400 47.956200
 174  1      51.294800 66.715300 69.277700
 175  1      2.849200 26.709300 47.874700
 176  1      14.808100 66.114400 38.900600
 177  1      51.320300 51.589200 29.970000
 178  1      3.606020 63.556800 30.102500
 179  1      17.721300 15.111200 69.121100
 180  1      35.640000 59.770100 59.827200
 181  1      30.025500 12.396400 30.403500
 182  1      29.979300 48.271700 71.816400
 183  1      36.168900 56.980100 8.794930
 184  1      36.571500 38.777400 63.229800
 185  1      42.472800 29.698600 54.025200
 186  1      36.394500 45.373900 3.232140
 187  1      23.645500 39.103300 9.286080
 188  1      23.751000 33.096500 9.213140
 189  1      63.123800 41.991500 69.320500
 190  1      0.664998 27.278700 26.841400
 191  1      20.564400 65.480000 27.285200
 192  1      42.303400 48.486000 24.015700
 193  1      0.262572 18.348600 66.280100
 194  1      65.915100 14.428200 21.220600
 195  1      3.246480 12.168400 26.813800
 196  1      56.766300 71.984300 20.856700
 197  1      29.962300 26.667100 57.170500
 198  1      63.388000 44.911600 66.354800
 199  1      27.258700 68.726800 17.293700
 200  1      33.307500 12.066600 45.244800
 201  1      50.953600 69.659900 54.248500
 202  1      48.661800 14.686200 69.457500
 203  1      63.557400 33.285700 0.094019
 204  1      42.427800 0.306661 48.215700
 205  1      21.349900 32.814800 6.512730
 206  1      39.045900 23.065000 21.277300
 207  1      54.187500 42.318500 30.127900
 208  1      36.724700 65.688900 29.822100
 209  1      38.849500 56.957200 30.009200
 210  1      29.803300 2.875770 27.249300
 211  1      2.691180 29.975400 33.299000
 212  1      3.100380 20.916500 60.523500
 213  1      69.122700 29.701700 27.648800
 214  1      62.957800 0.255692 26.558900
 215  1      45.449300 18.151700 50.962000
 216  1      50.796200 0.305729 63.639000
 217  1      9.290910 33.002300 41.637400
 218  1      66.659800 30.213000 66.321000
 219  1      32.893000 63.340600 53.970700
 220  1      39.156500 50.984100 54.081700
 221  1      17.515100 48.366000 66.113800
 222  1      11.587200 69.319100 8.852860
 223  1      15.319600 54.361500 27.578700
 224  1      57.121600 49.103600 38.929300
 225  1      57.315300 36.108200 14.961600
 226  1      35.882100 27.286600 51.228500
 227  1      20.855100 39.247100 6.190700
 228  1      30.561300 39.327400 57.084700
 229  1      50.674600 5.517980 21.494200
 230  1      27.034200 20.700900 47.937200
 231  1      3.042560 23.716500 57.482300
 232  1      45.403200 23.683000 3.306340
 233  1      12.012300 42.638300 17.807700
 234  1      27.142700 69.248500 60.026900
 235  1      48.184800 45.151200 3.121380
 236  1      3.187180 9.384320 66.251900
 237  1      27.429800 39.604000 18.219000
 238  1      50.780300 35.925100 32.818900
 239  1      60.413600 24.446400 0.189617
 240  1      2.317950 2.981550 60.354500
 241  1      39.078300 45.055600 35.961500
 242  1      17.595000 38.274800 8.947300
 243  1      56.918100 18.290400 39.137200
 244  1      48.124900 62.932200 56.981800
 245  1      54.023600 36.030900 47.890000
 246  1      17.643300 14.978300 44.851500
 247  1      33.073800 66.215100 39.104000
 248  1      71.931400 41.888400 66.149100
 249  1      21.306300 51.389000 60.117500
 250  1      48.353800 17.855100 66.487600
 251  1      39.296400 38.936900 71.543900
 252  1      48.234100 33.048900 14.759700
 253  1      66.008200 45.204800 51.630400
 254  1      35.652900 21.129700 45.078000
 255  1      51.024700 57.664500 35.719300
 256  1      51.452100 45.381700 66.000300
 257  1      12.436300 65.797700 48.231500
 258  1      33.254400 54.243300 45.122500
 259  1      59.966200 47.935500 54.234900
 260  1      45.214900 2.973090 18.236400
 261  1      42.021200 29.967500 6.046980
 262  1      63.510700 63.187700 6.412650
 263  1      66.014600 48.126000 60.377600
 264  1      39.006700 9.257400 23.481100
 265  1      2.812040 51.052700 12.385500
 266  1      54.487800 53.763400 12.509200
 267  1      36.099300 14.966700 14.549600
 268  1      9.111830 66.229100 2.672970
 269  1      51.219300 48.129900 69.239800
 270  1      35.806400 12.016200 47.959400
 271  1      32.492600 33.397100 6.138110
 272  1      49.063500 44.981900 62.564200
 273  1      69.223700 3.441840 23.959100
 274  1      24.006600 20.955800 69.414000
 275  1      54.681300 9.026190 21.259200
 276  1      66.491100 60.054100 12.287100
 277  1      23.957200 51.132800 51.250700
 278  1      9.386880 62.734700 53.910500
 279  1      8.673960 66.186500 51.262200
 280  1      48.475400 6.012980 60.492200
 281  1      27.175800 20.857800 18.367600
 282  1      9.316350 20.833200 71.863900
 283  1      8.281330 0.382951 45.097100
 284  1      24.189200 17.888900 48.400800
 285  1      42.266200 47.900600 59.740900
 286  1      69.317200 57.580700 12.109900
 287  1      56.690400 44.830600 24.549800
 288  1      57.035200 30.034200 8.873040
 289  1      60.581700 51.573900 45.125400
 290  1      21.464100 33.314100 12.184600
 291  1      9.018440 69.588500 23.881300
 292  1      27.060600 38.726200 24.066900
 293  1      35.653200 9.451300 51.328300
 294  1      20.947800 5.843660 27.193700
 295  1      45.430900 35.982300 3.097590
 296  1      41.823300 30.246800 36.093300
 297  1      33.113900 5.617700 51.129600
 298  1      48.296600 24.533300 54.279500
 299  1      18.302500 18.345500 18.336900
 300  1      54.379600 36.050200 36.163700
 301  1      48.303700 48.405300 0.141212
 302  1      12.490000 36.334400 54.598500
 303  1      63.681500 27.174300 5.964680
 304  1      60.509400 71.785300 5.738180
 305  1      18.073300 17.845400 36.528700
 306  1      66.387600 18.279300 66.177800
 307  1      57.439800 33.088800 65.648900
 308  1      54.541800 14.961900 51.210000
 309  1      69.005200 0.028505 3.449640
 310  1      6.109560 33.302800 33.610900
 311  1      54.262200 66.623700 0.305262
 312  1      21.267500 29.963300 26.397700
 313  1      30.390500 32.740900 26.847800
 314  1      41.997200 9.603780 57.472500
 315  1      33.050100 26.634700 0.068957
 316  1      66.296300 17.621400 12.416500
 317  1      60.504200 6.122220 18.491000
 318  1      17.204300 8.934330 27.512500
 319  1      36.257600 39.396400 69.217800
 320  1      50.560000 60.595500 69.116200
 321  1      30.239600 33.025300 51.302000
 322  1      5.923650 41.908000 12.232500
 323  1      39.641800 41.985900 68.507800
 324  1      57.192500 20.651000 23.744600
 325  1      12.367100 3.075290 69.449800
 326  1      5.214100 72.036600 18.249000
 327  1      48.031900 35.346900 53.946500
 328  1      51.157600 14.930500 24.177900
 329  1      54.311600 8.919280 44.972400
 330  1      12.097900 65.750900 17.993900
 331  1      21.045700 9.422580 36.483200
 332  1      51.302100 9.061650 18.423300
 333  1      3.110680 56.847200 11.129800
 334  1      63.073200 57.208900 23.563100
 335  1      32.999100 27.056700 24.239800
 336  1      5.952220 48.053300 29.774800
 337  1      38.837500 60.260600 33.513400
 338  1      57.567000 27.419400 72.092800
 339  1      60.559300 18.288900 47.924700
 340  1      29.472800 6.145110 42.286900
 341  1      53.955100 33.159100 15.112100
 342  1      48.104900 24.439200 17.547100
 343  1      3.155960 50.717700 60.305500
 344  1      51.093600 12.013700 26.649700
 345  1      42.075500 3.378370 44.856800
 346  1      2.741780 42.099000 21.269900
 347  1      60.297000 72.098200 54.191600
 348  1      62.982400 3.132580 23.541900
 349  1      23.117200 3.056570 33.031200
 350  1      68.646800 60.208300 44.909900
 351  1      68.836800 69.463400 24.196900
 352  1      21.305000 33.121700 24.268900
 353  1      36.248200 71.951300 5.786590
 354  1      32.864800 66.566900 51.468600
 355  1      42.024400 59.924500 47.805000
 356  1      45.500600 2.654530 60.182800
 357  1      35.988800 24.147400 11.575600
 358  1      6.368930 30.241400 18.223400
 359  1      21.109100 27.124400 11.982000
 360  1      18.042800 24.304500 47.934800
 361  1      65.898900 0.276948 18.244200
 362  1      35.941900 65.948000 53.935700
 363  1      51.374700 20.971800 5.980670
 364  1      14.881700 33.360000 36.277200
 365  1      2.292210 45.243400 0.356509
 366  1      39.071500 59.798500 2.928920
 367  1      60.354400 2.910520 2.990950
 368  1      66.293000 69.044500 38.724700
 369  1      2.831630 15.266900 12.029300
 370  1      69.165700 53.907900 69.291200
 371  1      38.923300 12.047800 63.183800
 372  1      69.454700 60.031000 14.918300
 373  1      53.884200 36.062800 24.343300
 374  1      60.152300 17.699800 35.711800
 375  1      30.880500 50.957000 69.050300
 376  1      68.832200 57.173900 29.896000
 377  1      6.252810 51.174400 38.763400
 378  1      30.148500 60.488800 35.913900
 379  1      14.851100 36.205600 33.124300
 380  1      29.782500 69.478600 50.587100
 381  1      20.969000 52.274400 12.046500
 382  1      62.991500 2.886210 60.788700
 383  1      63.670400 6.192600 26.991600
 384  1      36.447500 57.048100 45.127200
 385  1      41.499900 62.698000 9.283060
 386  1      42.386400 3.213340 20.289200
 387  1      48.190400 57.335600 26.785400
 388  1      3.230310 15.199200 5.683600
 389  1      71.963600 48.085300 0.052994
 390  1      48.464200 17.706500 36.179800
 391  1      69.438800 39.148200 24.066700
 392  1      24.105700 71.779900 60.311100
 393  1      62.839400 12.424100 57.166600
 394  1      65.760700 69.333600 69.345200
 395  1      42.171200 62.785500 69.004200
 396  1      12.126600 51.354000 51.043900
 397  1      14.661500 30.143600 15.038900
 398  1      12.145000 21.451800 38.807500
 399  1      60.671100 23.621900 5.748800
 400  1      44.918900 0.066364 44.964100
 401  1      50.964700 27.037700 6.380740
 402  1      12.157500 9.589310 68.873500
 403  1      59.527300 39.187300 57.598300
 404  1      54.398200 17.866400 12.401900
 405  1      66.083000 3.163600 45.530500
 406  1      20.651700 8.630210 72.054800
 407  1      5.966970 27.035300 33.096000
 408  1      3.222670 26.645900 65.998800
 409  1      69.310700 48.067500 26.926700
 410  1      63.030700 51.499600 0.152919
 411  1      51.262900 6.825120 15.345100
 412  1      63.180600 9.067610 18.243300
 413  1      12.409300 35.888000 11.908600
 414  1      42.226400 14.535300 32.981100
 415  1      0.762281 18.047700 5.869550
 416  1      65.977000 12.023600 36.167300
 417  1      11.656400 0.080665 18.244700
 418  1      57.261700 5.747900 45.127600
 419  1      32.888000 5.664080 33.193100
 420  1      51.138200 69.766800 18.210400
 421  1      33.278600 48.195800 50.537300
 422  1      36.345700 17.990500 11.748800
 423  1      26.823300 0.024147 27.077100
 424  1      18.207900 18.077400 5.819640
 425  1      32.796200 11.547600 32.907800
 426  1      45.230400 53.602700 33.155700
 427  1      41.699200 26.748800 69.282900
 428  1      59.924300 20.923700 51.255300
 429  1      45.191800 35.850800 45.076800
 430  1      26.886700 36.281100 63.418300
 431  1      35.760300 26.305600 32.937400
 432  1      9.326020 27.146300 30.367900
 433  1      51.477300 6.177590 51.696000
 434  1      48.069000 14.819900 33.170500
 435  1      42.671400 36.118900 18.161900
 436  1      45.372800 38.591700 24.006300
 437  1      26.943100 2.812440 12.087500
 438  1      30.236300 45.274000 32.963600
 439  1      69.693000 23.973100 27.234300
 440  1      39.662000 21.082800 72.093600
 441  1      51.309500 3.095210 42.373900
 442  1      44.942500 51.030000 59.857200
 443  1      2.487680 0.236241 9.175890
 444  1      21.217300 66.206200 63.006400
 445  1      11.834800 3.073120 50.973700
 446  1      69.293800 21.378600 35.827900
 447  1      60.521800 18.039900 66.380600
 448  1      59.992100 8.592630 63.312100
 449  1      38.719900 60.036400 14.763600
 450  1      66.294700 69.402500 51.010400
 451  1      12.042800 27.202500 39.081200
 452  1      50.780700 6.542120 69.241100
 453  1      33.093000 63.250100 36.286300
 454  1      8.904400 69.056800 30.436900
 455  1      56.818500 30.378000 21.271900
 456  1      23.942400 62.637700 14.405200
 457  1      51.942300 56.443900 17.994200
 458  1      69.068300 14.978200 12.121200
 459  1      18.196300 57.256400 62.890900
 460  1      9.288500 9.242780 66.015800
 461  1      44.698200 39.273200 6.192970
 462  1      6.010190 39.323900 33.300400
 463  1      62.838600 50.977800 60.372200
 464  1      54.093500 63.341300 69.131400
 465  1      71.995600 65.711900 0.196701
 466  1      2.888420 9.206110 12.249700
 467  1      54.034300 17.531900 5.772500
 468  1      63.201400 71.947500 32.994800
 469  1      53.771300 12.344700 0.468770
 470  1      56.355100 3.108290 60.589800
 471  1      27.025500 27.298400 6.312060
 472  1      18.165300 15.003400 33.507700
 473  1      36.648100 48.478000 11.514300
 474  1      50.726400 71.705800 51.506100
 475  1      36.267200 56.808300 56.803000
 476  1      26.570900 60.116600 15.048600
 477  1      18.645400 41.950900 72.148600
 478  1      38.904800 32.834600 36.233600
 479  1      0.160362 15.416500 20.474500
 480  1      63.366700 24.386000 51.041400
 481  1      27.119800 42.406100 63.464700
 482  1      69.182400 30.481700 44.694800
 483  1      17.809400 60.072900 47.722300
 484  1      8.949680 51.046300 18.147900
 485  1      48.209200 68.940200 27.116800
 486  1      63.189800 32.643400 23.924800
 487  1      47.990700 5.741030 36.651500
 488  1      57.220900 8.805630 18.349700
 489  1      45.050900 0.048230 51.603200
 490  1      68.648900 57.068800 72.008600
 491  1      17.425600 33.371500 44.753500
 492  1      33.288400 51.361500 66.612600
 493  1      30.925300 30.009200 23.667400
 494  1      3.216990 35.894400 21.061300
 495  1      12.193000 57.554000 44.760800
 496  1      39.229500 51.270800 71.974500
 497  1      59.763000 45.303500 63.496400
 498  1      12.062600 32.813300 15.315000
 499  1      48.139800 51.304100 33.341500
 500  1      45.455600 66.022000 57.120000
 501  1      18.190700 48.092600 41.947800
 502  1      0.358754 33.097100 51.109900
 503  1      51.190100 3.059320 12.388700
 504  1      48.577900 21.341800 56.416000
 505  1      20.776500 57.314200 29.810500
 506  1      65.767000 20.497500 56.884200
 507  1      23.689400 9.471220 68.965500
 508  1      27.436000 36.163700 69.566400
 509  1      59.956500 12.686600 42.207900
 510  1      6.781630 33.018500 39.305900
 511  1      66.267300 3.026060 38.941800
 512  1      23.897100 68.390100 45.287100
 513  1      68.926400 59.803000 2.906680
 514  1      15.478000 12.077200 57.210400
 515  1      48.568100 36.342600 42.064300
 516  1      57.884400 29.336200 63.266400
 517  1      41.482400 11.756800 54.189900
 518  1      41.975700 66.039700 53.905500
 519  1      59.905200 30.107100 11.829200
 520  1      65.779600 17.796900 6.453860
 521  1      26.621200 54.157900 20.699500
 522  1      42.197400 8.911140 2.657650
 523  1      11.608100 54.170800 30.619000
 524  1      63.386600 36.272300 51.274200
 525  1      11.874700 48.346100 36.184800
 526  1      20.820700 63.245100 47.904900
 527  1      30.444200 17.727300 5.650060
 528  1      17.640700 39.223700 62.966600
 529  1      32.767600 0.095869 50.687700
 530  1      48.436500 32.883400 69.391300
 531  1      39.518300 30.200600 8.651240
 532  1      8.521940 54.002700 15.033300
 533  1      45.284200 8.880510 30.036200
 534  1      60.324400 0.030727 66.812500
 535  1      56.891400 66.370300 2.688110
 536  1      41.630700 51.150200 39.145000
 537  1      69.115700 9.160890 41.927400
 538  1      48.910200 6.155750 42.406700
 539  1      44.925800 9.412320 11.356000
 540  1      38.870100 51.264900 5.757690
 541  1      20.898400 12.282100 9.224220
 542  1      57.114700 44.888100 11.757400
 543  1      42.759000 56.609500 57.055400
 544  1      23.851700 12.204900 48.489500
 545  1      0.165173 56.924000 27.255100
 546  1      39.186600 65.688700 9.108120
 547  1      9.138760 6.211570 39.390100
 548  1      12.093900 53.791600 66.411000
 549  1      30.287700 20.653400 57.045600
 550  1      18.324200 57.104100 3.106250
 551  1      11.846000 53.935400 5.528870
 552  1      57.124000 33.088700 29.985100
 553  1      5.699710 71.834300 6.128260
 554  1      60.588300 54.462400 54.002300
 555  1      48.139300 71.960900 35.869200
 556  1      42.002100 17.859700 11.949900
 557  1      38.937700 42.360900 8.875270
 558  1      49.191600 36.613400 66.270000
 559  1      69.389700 39.441500 42.305300
 560  1      6.611090 33.244700 44.965900
 561  1      45.145200 11.922700 8.960660
 562  1      24.027400 20.739300 27.532100
 563  1      14.939100 15.100700 30.276400
 564  1      48.284900 9.459860 39.435600
 565  1      54.158500 21.097700 63.614200
 566  1      12.023100 54.211700 0.077158
 567  1      63.758900 33.402500 54.102700
 568  1      62.852500 30.354500 51.040900
 569  1      45.237000 48.413600 69.023100
 570  1      69.175600 53.680700 3.112960
 571  1      71.597500 54.325800 0.434549
 572  1      53.678400 63.671200 39.129700
 573  1      68.918800 38.612400 54.096700
 574  1      41.945900 14.488500 8.770520
 575  1      66.253000 60.066100 30.369500
 576  1      18.011300 21.363400 21.269800
 577  1      6.165340 44.877000 51.745500
 578  1      42.321300 47.981500 54.046000
 579  1      0.302570 63.266500 14.889800
 580  1      48.269500 57.170700 8.521990
 581  1      8.818810 20.589900 17.718700
 582  1      24.020200 15.087600 68.986600
 583  1      17.961300 23.398500 23.895000
 584  1      11.943400 66.072600 60.256300
 585  1      18.811300 66.076600 59.930800
 586  1      69.754000 29.529700 63.463300
 587  1      0.199740 69.281500 44.700300
 588  1      36.204700 62.897400 44.861700
 589  1      14.839400 12.093600 20.903400
 590  1      39.074900 11.515100 69.128500
 591  1      62.842800 45.633700 42.089400
 592  1      27.559900 44.782500 54.341000
 593  1      66.554300 36.004000 24.304800
 594  1      21.627300 59.749100 26.537700
 595  1      63.292600 11.826000 45.660100
 596  1      14.592500 21.126000 12.029000
 597  1      9.110070 45.390000 54.351300
 598  1      11.888300 60.624300 30.283400
 599  1      30.146200 5.950760 0.047535
 600  1      12.267800 29.732100 23.660100
 601  1      15.409500 17.534900 63.276900
 602  1      5.686040 12.199000 35.910100
 603  1      0.174281 14.919200 51.650500
 604  1      32.578500 8.724550 48.086500
 605  1      63.083000 21.518100 48.651000
 606  1      60.389100 60.230400 30.346500
 607  1      8.692410 45.317800 72.123300
 608  1      15.393100 54.472200 45.038800
 609  1      35.868500 9.227360 45.417900
 610  1      0.081648 24.383900 23.938200
 611  1      45.330500 21.038500 36.327500
 612  1      41.578200 23.910100 42.467900
 613  1      48.154000 8.635470 33.416100
 614  1      45.417200 45.228600 41.857000
 615  1      39.506300 29.966700 50.613800
 616  1      62.830200 30.281600 45.429600
 617  1      36.152000 71.986200 71.700500
 618  1      30.083900 26.818600 8.960000
 619  1      35.487600 20.969500 39.398700
 620  1      26.495400 30.280900 44.696700
 621  1      26.950600 66.241500 33.069300
 622  1      54.525500 63.162500 21.078800
 623  1      6.377730 30.217800 0.221996
 624  1      6.276940 45.423000 63.047100
 625  1      39.650200 39.603400 60.459300
 626  1      26.924500 3.417380 30.309000
 627  1      20.968800 8.923930 12.154400
 628  1      39.288600 59.979600 27.188500
 629  1      2.652910 51.043000 29.982200
 630  1      68.736100 36.190100 57.325300
 631  1      47.686800 51.399400 2.773270
 632  1      71.750700 59.970800 0.275507
 633  1      36.480500 56.919700 14.767200
 634  1      41.604900 24.019100 29.700300
 635  1      65.873800 32.421800 45.037100
 636  1      9.132520 48.153400 63.434400
 637  1      12.165000 6.375010 42.249700
 638  1      57.051400 45.415800 66.332700
 639  1      32.947900 9.064840 23.648700
 640  1      3.196210 18.158200 9.020450
 641  1      35.916900 68.843300 33.349500
 642  1      50.972100 18.025300 9.206740
 643  1      26.552700 69.581000 66.131600
 644  1      17.825600 47.970300 24.118500
 645  1      5.880910 45.092200 2.974010
 646  1      63.098500 21.470900 0.485789
 647  1      54.025100 9.036680 3.197650
 648  1      66.010200 57.172800 51.293900
 649  1      66.670800 24.095300 53.867600
 650  1      54.789700 45.160400 2.715550
 651  1      63.380200 33.268500 66.714600
 652  1      63.639100 39.010600 0.016148
 653  1      20.828000 42.303600 51.313600
 654  1      48.223500 11.730500 36.155900
 655  1      42.242000 20.842600 33.023700
 656  1      35.891900 9.170130 14.790500
 657  1      48.075900 38.572600 20.368300
 658  1      26.791000 48.386200 3.007990
 659  1      15.141300 45.044900 23.974900
 660  1      32.636400 6.289590 44.915100
 661  1      20.869000 72.152500 32.994700
 662  1      8.977110 68.800900 11.647100
 663  1      27.021400 3.169200 6.089120
 664  1      60.495600 30.502100 60.596900
 665  1      27.274200 42.420000 14.734000
 666  1      26.984000 36.452600 39.026400
 667  1      18.302300 30.366200 12.103200
 668  1      0.150154 6.160590 6.022550
 669  1      53.814900 12.274000 66.458400
 670  1      38.778100 39.218400 12.013500
 671  1      21.503600 72.122500 50.760600
 672  1      5.055650 54.197500 30.028400
 673  1      51.790500 27.109000 36.091500
 674  1      53.758500 63.248700 26.891800
 675  1      14.733600 48.168200 8.947830
 676  1      50.914300 0.040016 26.880000
 677  1      18.024600 15.856500 27.013300
 678  1      8.864430 51.303800 60.369700
 679  1      47.938700 57.275900 32.785500
 680  1      21.076600 65.774700 2.263300
 681  1      5.763830 65.993700 54.109500
 682  1      6.403370 20.904000 44.406300
 683  1      2.942730 51.108800 0.070366
 684  1      48.635600 32.914200 20.823400
 685  1      62.826700 36.033700 45.046000
 686  1      24.053100 69.580700 56.843800
 687  1      21.360800 54.262900 51.303500
 688  1      12.097100 59.720200 59.860700
 689  1      42.367500 17.809100 47.701100
 690  1      36.133900 51.734000 2.336300
 691  1      6.163190 50.972500 57.226600
 692  1      44.985500 21.111100 60.363900
 693  1      14.989800 26.652400 60.094700
 694  1      39.568000 17.924600 2.856610
 695  1      9.287400 36.031200 39.248800
 696  1      50.944200 5.405190 39.315800
 697  1      18.049900 33.048000 26.763500
 698  1      18.181500 27.553600 9.439660
 699  1      45.312800 24.182900 57.324900
 700  1      0.438230 15.655600 8.799510