# Converted from POSCAR to lammps format

9 atoms
3 atom types

0.000000    4.312543   xlo xhi
0.000000    3.734772   ylo yhi
0.000000   17.487578   zlo zhi

  2.156271    0.000000    0.000000   xy xz yz

Atoms

   1  1      2.295202 1.325135 1.732093
   2  1      4.448158 2.568145 15.752129
   3  2      0.083849 0.048410 5.449341
   4  2      0.081831 0.047245 12.034356
   5  3      0.000000 0.000000 0.000000
   6  3      4.327727 2.498614 3.426012
   7  3      2.174976 1.255723 7.158387
   8  3      4.324267 2.496617 10.325225
   9  3      2.160126 1.247149 14.060068
