ITEM: TIMESTEP
1000
ITEM: NUMBER OF ATOMS
12442
ITEM: BOX BOUNDS xy xz yz pp pp pp
0.0000000000000000e+00 7.2169560000000004e+01 0.0000000000000000e+00
0.0000000000000000e+00 7.2169560000000004e+01 0.0000000000000000e+00
0.0000000000000000e+00 7.2169560000000004e+01 0.0000000000000000e+00
ITEM: ATOMS id element mass type x y z fx fy fz vx vy vz c_pe
1 Ge 72.64 1 71.4537 6.0247 23.875 0.38655 -0.17963 -0.272957 0.477035 -1.5185 -4.28304 -4.67422
2 Ge 72.64 1 65.9536 8.81458 63.6644 -0.46122 0.217557 -1.2942 -1.85222 0.825504 5.55875 -4.66253
3 Ge 72.64 1 69.4679 29.7912 2.58126 -0.0993939 0.114372 0.0141233 -5.59005 3.23169 0.728375 -4.64437
4 Ge 72.64 1 5.68828 50.9698 63.1798 0.416943 -0.301706 0.105349 3.66017 1.59003 2.3762 -4.76247
5 Ge 72.64 1 24.2864 54.4129 60.3383 -0.975141 -0.357614 0.0637234 -2.96576 -1.68406 5.31374 -4.6534
6 Ge 72.64 1 42.0019 21.0901 44.9964 0.404625 -0.254987 0.337932 -5.0414 -2.27298 2.12619 -4.64363
7 Ge 72.64 1 11.5981 9.00903 50.6727 0.566226 -0.246173 -0.33583 -0.738505 0.151099 -1.08667 -4.64892
8 Ge 72.64 1 54.0056 38.5437 45.103 0.283778 0.23409 0.53513 -2.82016 -0.464357 3.47663 -4.58643
9 Ge 72.64 1 57.4698 62.6801 54.1991 -0.486218 0.211818 -0.148902 -1.59847 0.456083 2.70204 -4.66435
10 Ge 72.64 1 60.3847 3.38935 39.1393 -0.0711941 0.0223873 -0.0775103 -3.78687 5.34911 -3.60415 -4.45721
11 Ge 72.64 1 3.02746 0.370646 14.9962 -0.555407 0.0022589 -0.0295971 -2.94686 4.18388 5.24123 -4.68017
12 Ge 72.64 1 39.2939 9.32609 60.3659 -0.505557 -1.16004 -0.425612 -2.00372 2.33885 1.23776 -4.73872
13 Ge 72.64 1 18.2733 30.2356 35.7436 -0.299037 -0.828336 1.16417 -0.692292 1.01247 5.58067 -4.56061
14 Ge 72.64 1 68.1007 20.8494 17.8791 1.06865 0.274582 -0.0030189 2.02151 2.62487 0.663377 -4.54517
15 Ge 72.64 1 68.944 50.7716 18.5713 0.67589 0.352348 -0.275397 -1.70132 -0.733402 6.63157 -4.69638
16 Ge 72.64 1 54.7162 36.4245 72.0885 -0.0460554 0.273829 -0.200553 3.31795 -0.897887 -3.21304 -4.62167
17 Ge 72.64 1 60.3832 17.7597 12.324 0.0177105 0.761838 0.169338 -1.60905 -0.395573 4.01789 -4.78481
18 Ge 72.64 1 41.7798 60.0276 5.98432 0.0613491 0.627168 0.175632 -2.40261 5.47395 2.67987 -4.7008
19 Ge 72.64 1 36.2348 2.94455 68.4979 0.245443 -0.300587 1.27088 -2.06763 1.82458 -3.78808 -4.53737
20 Ge 72.64 1 54.2289 21.1605 69.43 0.00670955 -0.139775 0.533976 0.112593 0.943894 -2.24653 -4.68791
21 Ge 72.64 1 35.974 23.3746 60.9537 0.372779 0.323988 -0.756244 -5.27526 2.50171 -2.88156 -4.29679
22 Ge 72.64 1 15.454 32.8649 18.0988 -0.628288 -0.127539 0.441636 -3.691 -2.86401 2.63124 -4.67001
23 Ge 72.64 1 66.6485 27.8797 38.8485 -0.464137 -0.880514 0.171767 8.3303 -0.963904 3.25413 -4.9322
24 Ge 72.64 1 14.7538 42.2074 63.767 -0.156798 -0.211547 -1.10242 0.0483879 -0.760576 -1.01867 -4.66162
25 Ge 72.64 1 29.7082 11.7435 65.9539 0.00641764 0.344675 0.414086 -0.489687 -0.494838 0.806694 -4.76477
26 Ge 72.64 1 27.0427 18.5722 39.0784 -0.174211 -0.287586 -0.233552 6.29043 5.4966 2.68523 -4.69882
27 Ge 72.64 1 8.68168 36.2231 26.8211 0.889394 -0.0457944 -0.141009 -1.37357 -4.98595 4.24525 -4.7701
28 Ge 72.64 1 30.369 57.5252 39.2087 -0.0885259 -0.469501 -0.341594 0.957994 2.38986 3.17193 -4.6075
29 Ge 72.64 1 44.9217 36.01 32.6143 0.215905 -0.146927 0.661387 -2.07262 -1.15193 -2.81858 -4.39859
30 Ge 72.64 1 36.0681 53.8399 54.295 0.49179 -0.547993 0.0464576 -0.610844 2.02007 -3.403 -4.80243
31 Ge 72.64 1 66.0723 63.0874 69.8414 0.00572572 0.221032 -0.353608 0.887082 1.70399 -2.28051 -4.82822
32 Ge 72.64 1 8.37226 66.4533 9.05869 0.84903 0.32847 -0.253707 1.21222 -1.17706 -1.85965 -4.65621
33 Ge 72.64 1 15.0199 29.7645 69.7254 -0.124551 0.100277 -0.580034 -5.71345 4.57118 1.80137 -4.82852
34 Ge 72.64 1 68.9226 24.3246 32.7982 -0.00302136 -0.0484667 0.456419 1.21296 -1.21891 -0.392038 -4.74414
35 Ge 72.64 1 41.9531 17.3912 35.8906 0.14769 0.719573 0.332384 1.59798 -5.11296 -3.78763 -4.63183
36 Ge 72.64 1 48.2374 35.841 72.123 0.419007 -0.0472115 -0.0343381 -5.55895 3.28782 -0.00454714 -4.6896
37 Ge 72.64 1 45.0481 68.7386 42.1705 0.681424 -0.0924027 0.390343 -3.07299 4.24757 0.395605 -4.7469
38 Ge 72.64 1 66.1204 39.5066 8.62132 0.168958 -0.984514 0.426677 -1.47033 3.85633 3.37976 -4.6669
39 Ge 72.64 1 69.2854 35.8278 51.1191 -0.146646 -0.248375 -0.117217 -0.7754 -1.97114 -0.287286 -4.65647
40 Ge 72.64 1 66.2295 5.81332 18.4066 0.23124 0.169953 -0.698836 0.689068 -3.96028 4.99211 -4.50724
41 Ge 72.64 1 57.2991 17.4931 9.21926 -0.0252479 -0.0119954 0.23028 0.0937382 -3.05375 2.03449 -4.81336
42 Ge 72.64 1 38.9683 14.8861 30.0405 0.592914 0.201198 0.069561 2.81272 -1.22307 3.1114 -4.74361
43 Ge 72.64 1 5.86298 5.70762 36.1283 -0.111477 1.34288 -0.501251 1.81863 -4.24749 -1.21451 -4.71741
44 Ge 72.64 1 29.8884 15.3718 44.9012 -0.107164 -0.87734 -0.354031 0.980177 -7.35981 2.95251 -4.74642
45 Ge 72.64 1 32.9451 33.2905 41.8552 -0.211133 -0.954784 0.0731245 -1.52872 2.36953 1.92651 -4.60267
46 Ge 72.64 1 15.1715 15.0791 24.113 0.282518 0.406432 0.245886 0.796328 -1.24094 3.88966 -4.71077
47 Ge 72.64 1 8.88947 45.2868 66.4788 0.447534 -0.116519 -0.267303 1.13426 0.482739 -2.84702 -4.63545
48 Ge 72.64 1 56.7916 15.0588 60.4445 -0.127953 0.29335 -0.442963 0.0223594 3.25072 -0.0963519 -4.56726
49 Ge 72.64 1 29.8377 33.2974 8.87357 0.989528 0.0375601 0.141781 1.09467 -1.03201 -2.46792 -4.71391
50 Ge 72.64 1 68.9291 15.2462 71.908 0.386659 -0.0958561 0.241228 5.53737 -3.34678 -1.60679 -4.77058
51 Ge 72.64 1 54.5373 6.37876 17.9796 -0.747377 -0.0829351 0.769462 5.92282 1.74219 -0.597045 -4.56722
52 Ge 72.64 1 69.3454 42.0412 27.0357 0.0235679 0.430454 0.00548274 -1.73624 -2.59774 -3.29779 -4.74198
53 Ge 72.64 1 63.1286 53.8555 9.6318 0.147375 -0.392661 -0.214078 -2.00499 3.15006 1.7233 -4.52134
54 Ge 72.64 1 24.3197 45.3595 32.7322 -0.425637 -0.482191 -0.0205594 3.165 1.60663 1.72379 -4.69482
55 Ge 72.64 1 21.0353 21.022 54.008 -0.228351 0.0720846 -0.0895542 0.724427 2.23144 2.42482 -4.86443
56 Ge 72.64 1 9.32527 33.1363 30.4458 -0.00589159 -0.28541 0.0344496 5.68117 -4.40574 2.30213 -4.64772
57 Ge 72.64 1 5.94636 54.0338 5.77244 -0.292832 0.197111 0.0880981 -0.510056 1.15574 2.22495 -4.55184
58 Ge 72.64 1 63.4011 54.1497 15.659 0.42476 1.4293 -0.42361 2.12563 0.791132 3.8559 -4.73645
59 Ge 72.64 1 0.235121 60.3217 36.139 -0.059704 0.245907 -1.00458 3.29916 -0.619236 -4.79431 -4.75496
60 Ge 72.64 1 29.6751 8.8415 50.5846 0.920387 0.257116 0.070566 -1.10337 2.37995 0.60112 -4.52205
61 Ge 72.64 1 33.6275 33.4352 17.1136 -0.288104 -0.316229 -0.00365314 -2.98816 0.475282 -0.479684 -4.7003
62 Ge 72.64 1 26.9233 41.8326 33.2992 0.116144 0.445631 0.00907676 1.32488 0.467573 4.0563 -4.7015
63 Ge 72.64 1 12.1339 2.86411 63.1237 -0.0428483 -0.403786 0.686061 0.0850696 -0.83803 -4.39752 -4.64225
64 Ge 72.64 1 57.4028 39.438 54.2855 -0.501551 -0.0924083 -0.149334 0.135147 6.07364 3.1724 -4.60669
65 Ge 72.64 1 33.0783 47.9817 21.2311 0.440656 0.378536 -0.351618 -3.80019 -4.35649 2.26366 -4.71096
66 Ge 72.64 1 32.9803 24.2452 9.09218 0.740862 -0.375585 -0.285599 0.875213 2.79861 -2.34438 -4.62885
67 Ge 72.64 1 27.308 11.822 21.8897 -0.895412 0.461738 0.0326719 5.83332 -0.00978557 -1.20347 -4.74964
68 Ge 72.64 1 33.2967 50.7546 12.0576 -0.668782 0.9121 0.0917364 -1.27183 -1.93265 -2.66974 -4.72626
69 Ge 72.64 1 63.0517 66.552 56.6913 -0.307257 -0.390605 0.280723 1.4076 0.0428486 -0.944799 -4.64536
70 Ge 72.64 1 3.03114 57.6006 30.131 -0.686191 -0.323214 -0.329237 -3.39142 -4.67228 0.600474 -4.57604
71 Ge 72.64 1 36.2623 5.73705 71.9359 -0.356925 0.243688 0.559048 -2.71742 -3.11104 4.48638 -4.6967
72 Ge 72.64 1 54.5833 5.84986 30.5705 0.261834 0.157976 -0.35747 -2.9066 -3.00509 -1.40033 -4.85749
73 Ge 72.64 1 50.8218 38.8384 12.3213 0.0100175 0.893196 0.339636 2.33835 -3.61618 -5.2482 -4.63688
74 Ge 72.64 1 0.534873 56.6334 20.9551 -0.52518 0.686519 0.32526 2.63298 -2.78633 -1.54084 -4.5778
75 Ge 72.64 1 60.5395 6.4417 60.0853 -0.210639 -0.242948 0.309891 4.73656 1.32098 1.39892 -4.79029
76 Ge 72.64 1 65.8038 45.171 15.3384 0.52466 -0.376081 -0.300553 0.116227 0.0770872 0.37039 -4.58603
77 Ge 72.64 1 45.2421 48.2357 14.4649 0.0331854 0.374791 0.123269 -1.03236 -3.98125 2.19811 -4.4781
78 Ge 72.64 1 57.3249 66.3372 33.2145 0.150202 -0.435039 -0.510135 2.77902 2.8502 -2.52492 -4.70494
79 Ge 72.64 1 23.654 8.67091 14.9225 0.275908 0.0468788 -0.0650354 0.216978 -5.32408 2.52825 -4.68404
80 Ge 72.64 1 39.3057 6.1553 44.9175 -0.0532846 0.698047 -0.0675638 2.09601 -0.843617 -0.653862 -4.80626
81 Ge 72.64 1 8.80969 57.8632 30.44 0.323013 -0.650941 -0.0791279 -2.03475 1.86744 -2.0015 -4.53966
82 Ge 72.64 1 32.6803 26.7853 35.8153 0.91091 0.059945 -0.0901092 3.56104 2.63044 -1.78318 -4.67565
83 Ge 72.64 1 17.658 35.9703 23.7716 0.77653 -0.447731 0.532376 -1.39886 -1.16599 -3.3043 -4.67233
84 Ge 72.64 1 60.5381 29.583 23.8505 0.129362 0.809028 -0.171737 2.15507 0.0572067 0.207143 -4.44855
85 Ge 72.64 1 11.645 63.0245 39.1446 -0.019994 -0.719168 0.102673 -2.3849 -3.57241 0.525634 -4.62014
86 Ge 72.64 1 26.7719 45.1781 11.9585 0.231887 -0.0319262 0.0642619 -4.59953 4.05601 0.63952 -4.59856
87 Ge 72.64 1 41.813 54.2477 23.5336 0.531793 -0.0559835 0.130683 -6.08964 2.80543 4.44569 -4.61277
88 Ge 72.64 1 24.2222 63.2311 20.4749 0.175909 0.00995903 1.03862 -1.59972 0.668193 -0.916288 -4.69619
89 Ge 72.64 1 33.3968 27.1303 53.9217 -0.115143 -0.900445 0.487625 -2.6667 5.28558 3.55687 -4.6865
90 Ge 72.64 1 27.3759 50.8922 66.3049 -1.24051 -0.0600483 -0.135295 -1.56068 3.42088 5.67293 -4.6027
91 Ge 72.64 1 17.8983 5.60619 0.289281 0.191647 -0.0288384 0.344184 -0.447694 -1.75985 4.18861 -4.5422
92 Ge 72.64 1 38.8919 18.0653 62.8963 0.0118142 -0.280565 0.780802 -1.25575 4.33573 -5.14285 -4.46447
93 Ge 72.64 1 27.0403 9.21102 36.2864 0.287677 0.133818 0.364059 2.9915 -0.0120361 -4.36989 -4.51397
94 Ge 72.64 1 11.7264 26.8653 2.39694 0.26665 0.562524 1.0499 2.72162 -0.726401 -3.89639 -4.52343
95 Ge 72.64 1 42.0219 48.0643 17.6536 0.164574 0.185442 0.237338 -2.31215 -0.855011 2.65914 -4.73182
96 Ge 72.64 1 69.2615 66.5077 21.2144 -0.204664 0.261103 -0.799605 -2.42253 1.37744 -1.66123 -4.70135
97 Ge 72.64 1 60.1615 36.5448 30.5633 -0.00753276 0.204726 -0.498966 -5.38859 -3.25459 3.52562 -4.39358
98 Ge 72.64 1 56.6518 42.0837 32.905 0.149655 0.508446 0.200401 -4.62457 -1.33095 -6.13851 -4.4131
99 Ge 72.64 1 47.9955 69.522 15.1862 -0.010844 0.0213635 0.0205953 -0.140366 0.813345 1.12445 -4.57103
100 Ge 72.64 1 8.7737 9.19173 47.9403 0.20492 0.234641 0.000833209 -0.449161 0.213866 -2.4907 -4.6526
101 Ge 72.64 1 5.71658 33.1367 9.01886 0.0843758 -0.237095 0.452289 0.680851 -3.02431 1.22757 -4.67733
102 Ge 72.64 1 23.8585 0.12523 36.1196 0.698002 -0.0526308 -0.150586 -3.49077 -2.17049 3.2759 -4.5373
103 Ge 72.64 1 27.2709 42.7633 20.7669 -0.232906 -0.284693 -0.259458 0.744098 3.94279 1.58798 -4.4356
104 Ge 72.64 1 24.3271 30.1551 5.82548 -0.189324 0.463227 0.973326 -3.36587 0.235608 3.13116 -4.6512
105 Ge 72.64 1 51.0168 23.8401 27.3217 0.225929 0.681596 -0.069436 -1.73816 0.908985 -0.37927 -4.60084
106 Ge 72.64 1 21.241 3.17421 24.3215 0.00343456 -0.420048 0.0659139 -1.23526 2.7749 0.330167 -4.51271
107 Ge 72.64 1 6.11 45.2291 39.2075 -0.0973511 0.241561 -0.113181 -1.0578 -3.60212 0.915686 -4.5992
108 Ge 72.64 1 57.7596 29.4505 68.9669 -0.163134 0.627046 0.559714 1.80241 -1.92571 0.33244 -4.80272
109 Ge 72.64 1 30.1598 39.379 63.2154 0.501624 -0.477435 -0.999764 -1.60831 -6.20615 -2.09721 -4.78612
110 Ge 72.64 1 24.2368 66.0838 23.9457 -0.425909 -0.0946455 0.172276 1.61624 1.08301 -1.66896 -4.61569
111 Ge 72.64 1 69.3446 50.977 48.0906 -0.106574 -0.0498896 0.039123 -0.160392 0.54849 0.299673 -4.61114
112 Ge 72.64 1 12.2827 53.8747 54.1702 -0.364304 0.255899 0.179402 -0.478962 -5.1418 -1.19987 -4.72693
113 Ge 72.64 1 60.3046 20.7158 26.6305 -0.256161 0.428346 0.509641 1.5284 -3.04879 2.01011 -4.60171
114 Ge 72.64 1 32.9048 33.2857 66.3091 0.269584 -0.450757 -0.196491 2.2097 -2.28785 -3.09012 -4.59101
115 Ge 72.64 1 44.7317 0.125303 14.5291 0.622524 0.248513 0.0536047 -1.48382 -2.76494 -2.63898 -4.72094
116 Ge 72.64 1 27.2444 39.0248 36.128 -0.369874 0.330038 0.734004 2.02931 0.610226 -2.84529 -4.68405
117 Ge 72.64 1 18.0729 68.8412 57.2331 0.0442219 0.826285 -0.908918 1.64539 -5.38872 -3.22125 -4.67329
118 Ge 72.64 1 63.2731 62.6123 0.626856 0.305811 0.310892 -0.450334 2.01695 1.4552 1.31009 -4.53311
119 Ge 72.64 1 3.41738 36.5091 44.5678 0.0331452 -1.43034 -0.287812 0.0566169 0.943256 -2.16226 -4.49513
120 Ge 72.64 1 45.3799 51.0505 29.974 -1.31134 0.412953 0.264124 0.230095 3.34741 2.02034 -4.55836
121 Ge 72.64 1 66.3036 57.1126 15.1491 0.273871 -0.1667 -0.0555921 3.22874 -5.59682 -1.88762 -4.90286
122 Ge 72.64 1 39.1292 53.608 44.9043 0.0366996 0.411996 0.162068 -0.89423 -0.369945 1.52586 -4.69719
123 Ge 72.64 1 60.3464 66.0599 66.9801 -0.248351 0.354531 -0.745442 -1.55031 5.19737 -6.64646 -4.57894
124 Ge 72.64 1 45.506 3.19659 54.3728 0.10628 -0.159767 -0.200715 -3.86458 -0.396373 1.83905 -4.83092
125 Ge 72.64 1 54.3872 30.035 42.2077 0.12887 0.0943564 0.228901 0.635657 -0.780243 -0.594235 -4.4763
126 Ge 72.64 1 36.3233 60.5456 24.2019 -0.666249 -0.44942 -0.170757 -1.56609 5.871 1.50626 -4.45336
127 Ge 72.64 1 48.43 47.9812 54.0352 -0.771921 -0.250906 0.518052 2.58106 -1.79328 -2.60556 -4.73788
128 Ge 72.64 1 21.3207 39.3136 17.6186 -0.3191 -0.00501416 0.167796 2.33328 -0.4665 1.68042 -4.31779
129 Ge 72.64 1 38.9541 53.9923 20.4313 0.137321 -0.322959 0.653116 -4.33552 2.40765 4.42835 -4.66494
130 Ge 72.64 1 39.1595 6.03375 63.2393 0.318171 0.297046 -0.0102011 -2.62626 -0.587381 0.184331 -4.75375
131 Ge 72.64 1 5.53304 72.1464 30.3475 -0.192689 -0.19872 -0.376766 -0.123696 2.24137 0.475273 -4.74072
132 Ge 72.64 1 5.73858 60.3981 6.20692 -0.175028 0.238525 0.0886761 -6.55433 0.7861 3.64006 -4.67812
133 Ge 72.64 1 24.1252 3.14213 2.76842 -0.604427 -0.380035 0.0884436 -1.60659 5.39602 0.715604 -4.70714
134 Ge 72.64 1 30.1752 69.1102 20.9225 -0.490784 -0.177944 0.452988 -2.06383 1.24364 -3.2244 -4.57704
135 Ge 72.64 1 65.734 14.8724 62.947 0.713181 0.234513 0.263424 2.8433 -3.6175 2.5844 -4.87481
136 Ge 72.64 1 24.051 30.2848 66.0466 0.514401 -0.418353 0.0300807 -1.81624 -2.92838 0.146858 -4.79039
137 Ge 72.64 1 35.8473 63.0798 33.5401 -0.395132 0.387475 0.0991826 1.80933 -0.0761143 0.840006 -4.75693
138 Ge 72.64 1 3.73859 47.7671 63.3783 -1.15975 0.024062 0.118397 -4.15212 -6.41917 5.10823 -4.76197
139 Ge 72.64 1 33.4134 29.9953 21.1282 -0.339366 -1.25864 -0.222617 2.8013 0.872815 2.58603 -4.74096
140 Ge 72.64 1 66.0156 2.8443 63.6039 -0.387829 0.571563 -0.443444 -0.167932 -1.97424 -7.78456 -4.63155
141 Ge 72.64 1 11.5805 69.1083 27.324 0.140924 -0.627094 0.401913 -0.580904 -0.626958 -3.47132 -4.5622
142 Ge 72.64 1 36.0281 23.578 5.20071 -0.0289924 -0.332988 0.110746 -4.48414 -0.419093 0.449038 -4.56816
143 Ge 72.64 1 29.6584 26.5631 45.0752 0.153053 0.596891 -0.143596 2.86947 -1.00338 4.33578 -4.6051
144 Ge 72.64 1 38.9777 32.764 47.8749 1.55177 0.256595 -0.078397 -3.27345 -5.47959 -2.10709 -4.72469
145 Ge 72.64 1 33.3309 24.129 27.3802 0.111482 0.234099 -0.398187 2.31924 -0.960954 -3.47663 -4.95769
146 Ge 72.64 1 36.3344 68.9306 15.0756 -0.332514 -0.0903363 -0.985805 -0.0727399 -2.74454 0.621836 -4.66235
147 Ge 72.64 1 48.0819 66.1639 35.965 -0.418042 -0.0613783 0.00310385 0.566347 0.923032 -3.0834 -4.30642
148 Ge 72.64 1 3.28587 14.6104 24.3787 -0.144765 -0.108164 -0.686704 4.35883 -3.80735 -1.3132 -4.76148
149 Ge 72.64 1 9.40651 54.0907 62.9519 0.227965 -0.161317 0.132736 -0.400862 3.41108 4.53531 -4.68387
150 Ge 72.64 1 8.79515 9.15341 18.1116 -0.316085 0.0943134 0.147617 1.50306 1.88783 4.54003 -4.71403
151 Ge 72.64 1 66.2719 47.8053 12.305 -0.860667 0.370523 0.300362 1.75354 -4.45347 -1.63378 -4.68524
152 Ge 72.64 1 3.04963 36.5311 2.63993 -0.201026 0.0199275 0.2824 -0.00657747 5.84456 -4.24152 -4.72187
153 Ge 72.64 1 48.274 66.2405 0.346926 0.0765527 0.10804 -0.630142 -2.55528 -1.9064 2.05595 -4.61322
154 Ge 72.64 1 12.0368 8.92159 62.9909 -0.119906 0.141934 -0.0781711 4.41237 4.78797 0.403321 -4.62012
155 Ge 72.64 1 42.5278 53.5739 60.3725 -0.324124 0.555112 -0.194558 -1.41028 1.84311 -1.16548 -4.56873
156 Ge 72.64 1 44.6285 50.6295 54.0322 0.586376 0.319816 -0.0396348 2.88897 -3.01109 0.105246 -4.73254
157 Ge 72.64 1 39.064 18.0138 45.15 -0.0140021 -0.110308 -0.762989 -1.7695 7.36506 1.55629 -4.57695
158 Ge 72.64 1 27.3218 30.1177 14.522 0.0717314 -0.115149 0.648488 2.01408 -3.43548 2.09109 -4.57821
159 Ge 72.64 1 32.8194 69.2992 17.5962 0.480184 -0.0293144 0.754181 -2.51143 -2.91376 0.248941 -4.63274
160 Ge 72.64 1 5.87293 71.5876 54.4379 0.324939 1.40766 -0.136536 2.70541 3.98861 -3.6543 -4.60617
161 Ge 72.64 1 57.0769 63.1498 30.0348 0.588385 -0.0627786 0.285733 -3.2715 -1.54871 -3.21535 -4.45375
162 Ge 72.64 1 20.9022 69.1626 47.909 -0.218224 0.161976 -0.10198 -0.0618296 -3.62759 -2.35241 -4.77313
163 Ge 72.64 1 3.06526 53.9777 63.1403 0.618474 -0.178525 -0.0788846 1.00036 -1.28234 0.424235 -4.45789
164 Ge 72.64 1 69.0197 3.19358 60.2962 -0.70053 -0.781503 -0.179398 0.0764909 -5.23399 -1.35118 -4.70135
165 Ge 72.64 1 11.6311 20.9627 15.2205 0.168667 0.170502 -0.242987 5.56271 2.0713 -0.581954 -4.45219
166 Ge 72.64 1 60.3168 21.4144 39.2214 -0.515781 -0.49207 0.258058 -3.01047 1.72321 -0.278929 -4.78718
167 Ge 72.64 1 63.246 3.78725 36.1087 -0.176193 -1.19846 -0.130048 -2.9447 3.33779 -1.76581 -4.78719
168 Ge 72.64 1 21.0347 21.0441 18.4802 -0.175786 0.159972 -0.194752 -4.39998 -0.373976 0.554744 -4.79556
169 Ge 72.64 1 15.1019 57.1741 60.1397 -0.0709525 0.195553 -0.238751 3.54937 -1.72874 3.43033 -4.85436
170 Ge 72.64 1 23.8699 14.7001 57.106 0.157164 1.05721 0.0963743 -0.01672 -3.2819 -0.52838 -4.71729
171 Ge 72.64 1 45.2066 8.69641 42.0155 0.0799158 -0.0242606 -0.296655 -0.347266 -0.508045 2.6852 -4.7204
172 Ge 72.64 1 14.8027 6.11381 50.7621 -0.176606 0.474635 -0.219934 -3.56372 0.868298 0.0400462 -4.71532
173 Ge 72.64 1 48.3138 18.0814 47.9562 0.240664 0.520721 -0.245858 -4.43249 1.12137 -5.35139 -4.79089
174 Ge 72.64 1 51.2948 66.7153 69.2777 -0.277864 -0.00783657 0.203246 3.0779 -0.588088 0.779286 -4.78965
175 Ge 72.64 1 2.8492 26.7093 47.8747 0.21443 0.490817 0.768692 -1.63408 -2.70529 -3.23517 -4.66222
176 Ge 72.64 1 14.8081 66.1144 38.9006 0.149838 0.344455 0.113566 -2.57297 0.599084 6.00278 -4.6816
177 Ge 72.64 1 51.3203 51.5892 29.97 -0.536389 0.466692 -0.0630428 -0.329394 -0.928272 0.943668 -4.55475
178 Ge 72.64 1 3.60602 63.5568 30.1025 -0.41427 0.287421 -0.154169 -0.245745 1.22216 -1.33068 -4.74959
179 Ge 72.64 1 17.7213 15.1112 69.1211 0.449117 -0.79836 -0.240426 0.292362 0.753485 4.87853 -4.57024
180 Ge 72.64 1 35.64 59.7701 59.8272 0.486839 0.215826 0.549984 3.32869 -1.27307 0.536877 -4.68934
181 Ge 72.64 1 30.0255 12.3964 30.4035 -0.0471842 -0.380498 0.0875822 0.722365 0.375368 0.110455 -4.63675
182 Ge 72.64 1 29.9793 48.2717 71.8164 0.39397 -0.373152 0.253464 3.50815 -0.218748 1.06935 -4.54433
183 Ge 72.64 1 36.1689 56.9801 8.79493 -0.153582 -0.763721 -0.0678812 -4.03463 2.06731 0.548971 -4.59319
184 Ge 72.64 1 36.5715 38.7774 63.2298 -0.215759 0.44991 -0.245806 1.47218 -2.04158 1.97397 -4.63841
185 Ge 72.64 1 42.4728 29.6986 54.0252 0.00110948 0.722717 0.224834 2.68902 -0.933422 3.22345 -4.59822
186 Ge 72.64 1 36.3945 45.3739 3.23214 -0.667479 0.505723 0.117939 0.863883 0.869958 0.147487 -4.62269
187 Ge 72.64 1 23.6455 39.1033 9.28608 0.0633909 -0.312862 -0.849398 -0.325544 -1.13175 -1.33307 -4.75851
188 Ge 72.64 1 23.751 33.0965 9.21314 0.063159 -0.0845755 0.164436 -3.7791 -0.502682 2.23936 -4.69724
189 Ge 72.64 1 63.1238 41.9915 69.3205 -0.0491447 -0.172711 -0.274403 -2.04819 0.25982 -1.95764 -4.37986
190 Ge 72.64 1 0.664998 27.2787 26.8414 -0.536369 -0.133197 0.57032 2.11258 -1.98486 -0.118115 -4.48531
191 Ge 72.64 1 20.5644 65.48 27.2852 -0.326088 0.242873 -0.313785 4.62929 -0.653162 4.70402 -4.55931
192 Ge 72.64 1 42.3034 48.486 24.0157 0.264261 -0.232299 -0.370246 -6.02892 0.102884 -2.82946 -4.68161
193 Ge 72.64 1 0.262572 18.3486 66.2801 -0.281249 0.262498 0.616841 -0.338855 2.19644 -1.10837 -4.8251
194 Ge 72.64 1 65.9151 14.4282 21.2206 -0.121982 0.387994 -0.112123 -7.6478 1.09893 -2.04708 -4.62604
195 Ge 72.64 1 3.24648 12.1684 26.8138 -0.526306 0.113659 0.12192 0.0768049 2.52036 0.283675 -4.69942
196 Ge 72.64 1 56.7663 71.9843 20.8567 0.407937 -0.250557 0.339636 -1.12143 -5.63342 3.33375 -4.62004
197 Ge 72.64 1 29.9623 26.6671 57.1705 0.349695 -0.0568856 -0.290973 0.898494 2.53571 -2.92642 -4.58789
198 Ge 72.64 1 63.388 44.9116 66.3548 -0.189044 0.395322 -0.304763 2.57893 -1.43902 -4.17081 -4.60444
199 Ge 72.64 1 27.2587 68.7268 17.2937 -0.18197 0.395704 0.423506 -1.52721 6.65882 -1.67459 -4.49707
200 Ge 72.64 1 33.3075 12.0666 45.2448 -0.539289 0.26264 -0.303787 0.293304 -0.484764 -2.08037 -4.56219
201 Ge 72.64 1 50.9536 69.6599 54.2485 0.184996 -0.352629 0.279442 -0.927318 -5.87493 -1.71684 -4.35561
202 Ge 72.64 1 48.6618 14.6862 69.4575 -0.467027 0.0603632 0.480279 -1.50207 0.661891 1.66292 -4.6073
203 Ge 72.64 1 63.5574 33.2857 0.0940185 0.0524498 -0.305932 0.0711644 4.04906 0.424979 -2.09912 -4.73979
204 Ge 72.64 1 42.4278 0.306661 48.2157 -0.0696117 -1.16531 0.100704 -4.15797 3.19652 5.44719 -4.7447
205 Ge 72.64 1 21.3499 32.8148 6.51273 0.313878 0.480744 -0.0650104 -3.16865 -1.41976 0.454101 -4.57889
206 Ge 72.64 1 39.0459 23.065 21.2773 -0.118309 0.632416 -0.215935 -0.851763 0.637195 -0.507639 -4.59536
207 Ge 72.64 1 54.1875 42.3185 30.1279 0.695042 0.381073 -0.151353 -6.29173 0.501213 -1.97142 -4.76311
208 Ge 72.64 1 36.7247 65.6889 29.8221 -0.628801 1.13631 0.270616 -2.63171 1.9465 -0.165563 -4.54495
209 Ge 72.64 1 38.8495 56.9572 30.0092 0.163395 -0.248418 -0.370477 -0.205873 -1.09048 1.88833 -4.65975
210 Ge 72.64 1 29.8033 2.87577 27.2493 0.811801 -0.192985 0.0462909 -1.85087 -3.74694 3.14622 -4.37248
211 Ge 72.64 1 2.69118 29.9754 33.299 1.26349 0.294616 0.456453 5.93884 -1.14128 2.4728 -4.72275
212 Ge 72.64 1 3.10038 20.9165 60.5235 -0.239751 0.562827 -0.503607 -1.26466 2.96459 2.18375 -4.65374
213 Ge 72.64 1 69.1227 29.7017 27.6488 0.177176 0.510473 0.102867 -0.792034 -0.28134 -1.71487 -4.52232
214 Ge 72.64 1 62.9578 0.255692 26.5589 1.00971 -0.254923 -0.250409 1.10845 1.89128 1.29736 -4.74592
215 Ge 72.64 1 45.4493 18.1517 50.962 -0.14239 0.0115812 -0.00597465 -1.09488 -0.386687 -0.182751 -4.74642
216 Ge 72.64 1 50.7962 0.305729 63.639 0.655289 0.225674 -0.373056 1.24605 -1.31667 1.25393 -4.56449
217 Ge 72.64 1 9.29091 33.0023 41.6374 0.268346 0.215334 0.245281 -2.76469 -1.37305 -2.00232 -4.80485
218 Ge 72.64 1 66.6598 30.213 66.321 0.0061029 0.318511 -1.50252 3.36209 -4.19265 -2.85536 -4.5939
219 Ge 72.64 1 32.893 63.3406 53.9707 0.0462378 0.406162 -0.168217 1.87085 -0.465588 1.41944 -4.59932
220 Ge 72.64 1 39.1565 50.9841 54.0817 -0.783241 -0.836855 0.236975 -1.11321 -0.917844 -2.10989 -4.79966
221 Ge 72.64 1 17.5151 48.366 66.1138 0.971731 -0.758024 0.0476169 -2.52278 3.07316 -3.91196 -4.64695
222 Ge 72.64 1 11.5872 69.3191 8.85286 0.0852278 0.481824 0.194803 -0.196772 2.2579 -5.36972 -4.5245
223 Ge 72.64 1 15.3196 54.3615 27.5787 -0.614207 -0.481815 -0.0126428 4.84813 3.3088 -2.20124 -4.58792
224 Ge 72.64 1 57.1216 49.1036 38.9293 -0.0482451 -0.996863 0.129577 5.04637 -1.19645 -1.56611 -4.50435
225 Ge 72.64 1 57.3153 36.1082 14.9616 -0.493496 -0.224528 0.542693 0.388617 -1.9357 -4.71258 -4.72007
226 Ge 72.64 1 35.8821 27.2866 51.2285 0.21129 -1.03356 0.168095 2.66107 0.590622 3.72118 -4.54324
227 Ge 72.64 1 20.8551 39.2471 6.1907 -0.350286 -0.869024 -0.0431373 -2.64052 0.220599 -1.82709 -4.71041
228 Ge 72.64 1 30.5613 39.3274 57.0847 -0.422493 -1.12518 0.203294 2.54741 -0.56427 3.96458 -4.67484
229 Ge 72.64 1 50.6746 5.51798 21.4942 -0.0879499 0.746694 -0.3786 -0.822859 -1.77321 1.34217 -4.64549
230 Ge 72.64 1 27.0342 20.7009 47.9372 -0.683525 -0.48877 0.350759 -1.49689 -2.30544 6.64025 -4.74336
231 Ge 72.64 1 3.04256 23.7165 57.4823 -0.144606 -0.307762 0.0353795 2.05751 9.61822 1.15348 -4.61688
232 Ge 72.64 1 45.4032 23.683 3.30634 0.00137074 -0.173216 -0.441757 -3.09227 -3.13027 -2.74858 -4.45426
233 Ge 72.64 1 12.0123 42.6383 17.8077 -0.00322667 -0.738979 0.467096 -1.6106 -3.67975 -0.469078 -4.51497
234 Ge 72.64 1 27.1427 69.2485 60.0269 -0.0839336 0.0340896 -0.159498 -1.37076 -3.07262 5.796 -4.45779
235 Ge 72.64 1 48.1848 45.1512 3.12138 -0.303276 0.0927743 0.0235776 -0.0737989 -1.12747 -0.817024 -4.41607
236 Ge 72.64 1 3.18718 9.38432 66.2519 0.0442575 0.000640257 0.213133 2.2514 1.44066 3.5351 -4.73667
237 Ge 72.64 1 27.4298 39.604 18.219 0.631576 -0.776161 -0.227793 0.565409 1.91931 -3.41979 -4.66047
238 Ge 72.64 1 50.7803 35.9251 32.8189 1.29929 0.0655468 -0.141998 -0.318639 -0.981197 -0.50228 -4.3922
239 Ge 72.64 1 60.4136 24.4464 0.189617 0.0852837 0.577373 -0.521638 -1.54201 2.90948 -5.15182 -4.516
240 Ge 72.64 1 2.31795 2.98155 60.3545 0.907005 0.0192367 0.108021 1.98429 2.06782 2.27651 -4.74027
241 Ge 72.64 1 39.0783 45.0556 35.9615 0.641259 0.312046 -0.323165 0.896809 -1.91636 -0.716745 -4.67166
242 Ge 72.64 1 17.595 38.2748 8.9473 0.532359 -0.348871 -0.392658 -0.00345779 1.47671 -0.219704 -4.79611
243 Ge 72.64 1 56.9181 18.2904 39.1372 -0.281155 0.150593 0.130062 -0.441917 2.81594 -8.84673 -4.45616
244 Ge 72.64 1 48.1249 62.9322 56.9818 0.0733515 -0.228577 0.0701205 -1.66777 1.73571 0.436939 -4.5666
245 Ge 72.64 1 54.0236 36.0309 47.89 0.835894 -0.00782938 0.0584251 1.35235 -0.0598702 -2.7068 -4.76196
246 Ge 72.64 1 17.6433 14.9783 44.8515 -0.069722 1.06492 -0.220671 -2.27184 -0.362018 -1.31897 -4.66106
247 Ge 72.64 1 33.0738 66.2151 39.104 -0.427749 -0.115185 -0.426734 -0.955609 0.95839 3.8381 -4.75766
248 Ge 72.64 1 71.9314 41.8884 66.1491 0.15509 0.0324104 -0.242568 0.964444 2.58777 -0.516664 -4.48401
249 Ge 72.64 1 21.3063 51.389 60.1175 -0.56522 -0.788039 0.0282321 -0.622746 -3.13038 -1.34032 -4.636
250 Ge 72.64 1 48.3538 17.8551 66.4876 -0.146982 0.226404 -0.374457 0.5112 0.557863 -2.34926 -4.75954
251 Ge 72.64 1 39.2964 38.9369 71.5439 0.0855118 0.185294 -0.155669 5.03883 -0.885235 -3.6839 -4.51696
252 Ge 72.64 1 48.2341 33.0489 14.7597 -0.42611 0.525798 0.39442 -2.61566 3.0163 -1.41898 -4.70764
253 Ge 72.64 1 66.0082 45.2048 51.6304 0.28134 0.203952 -1.33072 0.430108 0.999708 -2.99072 -4.70689
254 Ge 72.64 1 35.6529 21.1297 45.078 0.0658989 0.058027 0.157615 -2.8376 -3.24293 1.43235 -4.65722
255 Ge 72.64 1 51.0247 57.6645 35.7193 -0.525956 -0.809386 -0.0929913 -0.0644391 -3.14693 -0.851746 -4.75892
256 Ge 72.64 1 51.4521 45.3817 66.0003 -0.170732 0.00948143 -0.51995 -2.88006 -0.353562 1.32982 -4.65104
257 Ge 72.64 1 12.4363 65.7977 48.2315 -0.768972 -0.33259 -0.470494 -1.01121 0.819837 -1.89175 -4.69869
258 Ge 72.64 1 33.2544 54.2433 45.1225 0.42358 0.035658 -0.346333 0.00831307 -0.157945 -3.56153 -4.64613
259 Ge 72.64 1 59.9662 47.9355 54.2349 0.620149 0.0256454 -0.103543 2.93445 1.73351 -1.43203 -4.5544
260 Ge 72.64 1 45.2149 2.97309 18.2364 1.37041 0.0700885 0.143423 0.52277 1.62985 -1.60827 -4.64405
261 Ge 72.64 1 42.0212 29.9675 6.04698 -0.0355034 0.391589 -0.545174 4.51309 4.49387 2.28018 -4.44327
262 Ge 72.64 1 63.5107 63.1877 6.41265 0.0446355 0.465281 -0.207106 2.41033 -0.0891519 -4.00814 -4.60994
263 Ge 72.64 1 66.0146 48.126 60.3776 0.377622 -0.0374979 -0.14363 1.32673 0.115749 1.71375 -4.61137
264 Ge 72.64 1 39.0067 9.2574 23.4811 0.453373 0.0303425 0.272653 2.24784 1.73382 -1.11633 -4.52838
265 Ge 72.64 1 2.81204 51.0527 12.3855 0.231381 0.0435688 -1.24662 -1.88237 4.87604 2.86682 -4.71653
266 Ge 72.64 1 54.4878 53.7634 12.5092 -0.472465 0.220273 -0.457676 3.6633 2.74854 1.66532 -4.69488
267 Ge 72.64 1 36.0993 14.9667 14.5496 0.232006 0.357263 -0.120324 -1.4332 3.50088 0.259566 -4.50676
268 Ge 72.64 1 9.11183 66.2291 2.67297 -0.280403 0.691222 -0.0113647 1.64243 -0.699052 -3.27259 -4.65706
269 Ge 72.64 1 51.2193 48.1299 69.2398 0.0248585 0.603829 -0.598399 0.724644 -2.26105 -0.345146 -4.48413
270 Ge 72.64 1 35.8064 12.0162 47.9594 0.0388457 -0.404963 -0.0811575 -0.39602 4.42227 -0.967176 -4.67504
271 Ge 72.64 1 32.4926 33.3971 6.13811 0.57032 -0.18731 -0.069052 -0.436412 -0.611118 1.33385 -4.7256
272 Ge 72.64 1 49.0635 44.9819 62.5642 0.279194 0.0373959 0.95357 -2.6117 -2.30924 -2.00756 -4.53659
273 Ge 72.64 1 69.2237 3.44184 23.9591 0.14323 -0.701338 0.173826 1.32983 1.66667 0.712134 -4.81396
274 Ge 72.64 1 24.0066 20.9558 69.414 0.8384 0.0295962 0.35433 3.52201 1.4185 0.304487 -4.67562
275 Ge 72.64 1 54.6813 9.02619 21.2592 0.221802 -0.103103 0.0410558 2.53405 -0.171476 1.65364 -4.54455
276 Ge 72.64 1 66.4911 60.0541 12.2871 -0.496467 0.20508 -0.779395 1.45015 -0.341003 -5.33107 -4.81636
277 Ge 72.64 1 23.9572 51.1328 51.2507 -0.417642 -0.123894 0.0631746 1.56054 2.03559 1.03786 -4.82921
278 Ge 72.64 1 9.38688 62.7347 53.9105 -0.089386 0.00391606 -0.510402 -4.64827 2.14966 0.968805 -4.55028
279 Ge 72.64 1 8.67396 66.1865 51.2622 -0.427059 -0.525281 -0.281114 0.769648 -2.14554 3.70216 -4.54896
280 Ge 72.64 1 48.4754 6.01298 60.4922 -0.382613 -0.469562 -0.0782789 -0.366835 3.61915 -1.02812 -4.53485
281 Ge 72.64 1 27.1758 20.8578 18.3676 0.0130506 0.929774 -0.425947 0.611467 -0.637063 -0.0943945 -4.57945
282 Ge 72.64 1 9.31635 20.8332 71.8639 -0.248873 0.6394 0.336917 3.86437 0.905833 4.23268 -4.71183
283 Ge 72.64 1 8.28133 0.382951 45.0971 0.992067 0.0817357 -0.0368449 -1.17035 -1.67404 0.827547 -4.5459
284 Ge 72.64 1 24.1892 17.8889 48.4008 0.213137 0.185599 0.0399612 0.290281 -0.552683 4.04786 -4.57073
285 Ge 72.64 1 42.2662 47.9006 59.7409 0.139081 0.000718915 0.399255 -1.81577 -4.00943 -0.0715495 -4.69304
286 Ge 72.64 1 69.3172 57.5807 12.1099 0.25996 -0.394568 -0.568525 2.07334 1.37993 -1.05853 -4.88519
287 Ge 72.64 1 56.6904 44.8306 24.5498 0.705758 0.586758 -0.0171274 -0.372573 -1.53914 2.36948 -4.62264
288 Ge 72.64 1 57.0352 30.0342 8.87304 0.22672 -0.0641254 -0.253759 3.01405 -1.46503 -1.97479 -4.31425
289 Ge 72.64 1 60.5817 51.5739 45.1254 -0.224654 -0.161533 0.164224 4.42664 -3.47681 -2.06986 -4.76346
290 Ge 72.64 1 21.4641 33.3141 12.1846 0.158382 -0.844716 0.230726 4.11363 0.652086 1.27486 -4.76227