# Converted from POSCAR to lammps format

12442 atoms
3 atom types

0.000000   72.169560   xlo xhi
0.000000   72.169560   ylo yhi
0.000000   72.169560   zlo zhi

  0.000000    0.000000    0.000000   xy xz yz

Atoms

   1  1      66.552100 8.840900 27.051400
   2  1      63.393700 12.264700 62.977500
   3  1      69.421600 30.231600 3.152610
   4  1      5.432810 51.189800 63.226200
   5  1      24.210100 54.216300 60.070100
   6  1      42.084000 20.829900 45.592600
   7  1      11.971300 11.645000 48.213600
   8  1      53.837100 39.287600 44.807500
   9  1      57.116900 63.007500 60.052500
  10  1      59.949000 3.001160 38.903900
  11  1      2.881540 3.440730 11.624200
  12  1      38.952600 8.845160 60.217500
  13  1      18.041200 30.064200 36.116800
  14  1      69.294900 18.044600 21.326700
  15  1      71.782000 50.862900 20.649500
  16  1      54.354300 36.345400 72.117800
  17  1      62.658500 18.320200 9.459260
  18  1      42.744600 60.497100 6.041270
  19  1      36.284000 9.070350 69.182200
  20  1      57.344500 23.566800 68.764800
  21  1      36.221000 24.412100 60.350300
  22  1      14.789800 33.041300 18.183900
  23  1      66.320200 27.301600 39.438600
  24  1      17.808500 44.796800 63.265800
  25  1      29.965000 11.802700 66.670500
  26  1      26.557800 18.352400 38.259000
  27  1      8.770000 35.981900 26.738100
  28  1      30.333600 56.813700 38.994500
  29  1      45.196100 38.889900 35.988600
  30  1      36.930200 54.105700 54.344200
  31  1      66.791900 63.430600 69.890800
  32  1      8.588870 66.653200 8.950960
  33  1      15.070300 30.572300 68.451800
  34  1      68.717000 24.349300 32.887900
  35  1      41.859600 17.933300 36.312300
  36  1      48.286200 35.825500 0.351667
  37  1      45.035500 68.934800 42.384400
  38  1      66.341200 38.905700 8.848850
  39  1      65.988200 35.249100 48.685000
  40  1      -0.011812 0.298534 18.273100
  41  1      59.610400 14.833900 8.817960
  42  1      38.855800 14.918700 30.310100
  43  1      5.755790 6.452230 36.561000
  44  1      30.257600 14.856600 45.288900
  45  1      32.847400 33.084200 42.114700
  46  1      15.138600 15.129600 23.814400
  47  1      8.592130 48.487200 63.258000
  48  1      56.811100 15.396500 60.135600
  49  1      30.242000 32.886800 9.208630
  50  1      69.234400 20.906600 71.918700
  51  1      54.172300 6.105630 18.086700
  52  1      69.182200 41.813900 27.416000
  53  1      63.233200 53.916500 9.041430
  54  1      23.648900 45.071400 33.218600
  55  1      17.727600 20.827000 50.820900
  56  1      9.200750 32.774400 30.481500
  57  1      3.196540 51.485900 5.817110
  58  1      63.511600 53.995200 15.053500
  59  1      0.471674 60.232400 35.885200
  60  1      30.161100 8.946210 51.141000
  61  1      36.235700 36.328600 12.106500
  62  1      26.623900 42.272900 33.243600
  63  1      12.358500 3.141610 63.162900
  64  1      57.334700 39.205200 54.638900
  65  1      33.222300 48.455700 20.894100
  66  1      33.225100 24.333000 8.975870
  67  1      30.060800 12.374000 23.734100
  68  1      32.864600 51.184200 12.346100
  69  1      62.918100 66.558000 57.258800
  70  1      3.466790 57.085200 30.215000
  71  1      36.071600 5.925030 0.152085
  72  1      56.732500 3.044460 30.025500
  73  1      50.613600 38.810700 12.522700
  74  1      72.152200 57.517700 21.060900
  75  1      60.386000 6.135720 60.432700
  76  1      65.961400 45.137500 15.097100
  77  1      45.237000 51.545000 17.616100
  78  1      57.682300 66.269400 33.465800
  79  1      24.484200 8.627010 15.235000
  80  1      35.698100 5.721710 42.237100
  81  1      9.058600 56.957000 29.743200
  82  1      32.735100 27.223400 36.368000
  83  1      18.072800 36.236200 24.039700
  84  1      59.787100 30.508500 23.851400
  85  1      12.091700 62.777200 38.884000
  86  1      27.205900 45.542700 12.035500
  87  1      42.074300 54.148100 23.683700
  88  1      24.214000 63.422300 20.848300
  89  1      32.831500 26.604700 54.025400
  90  1      27.237700 50.915300 66.212200
  91  1      17.848900 5.651980 71.882400
  92  1      38.946500 17.931300 62.703200
  93  1      27.231200 9.180670 36.335300
  94  1      11.758300 27.536500 2.970930
  95  1      41.521300 47.998700 17.906700
  96  1      68.944000 66.205500 21.047700
  97  1      60.300000 36.326100 30.206300
  98  1      54.338400 42.845700 36.209900
  99  1      48.444200 69.261800 15.352400
 100  1      8.937710 11.759300 45.442000
 101  1      6.293790 33.055900 8.808820
 102  1      26.681500 69.172300 36.457700
 103  1      30.021300 44.897900 20.665100
 104  1      23.743500 30.447900 6.119490
 105  1      50.747900 26.766000 30.251700
 106  1      21.184600 3.255850 24.444900
 107  1      6.230180 48.077400 41.841400
 108  1      57.105000 30.484800 68.858200
 109  1      30.021700 39.197700 63.563400
 110  1      24.056000 66.040300 23.721200
 111  1      69.859600 51.092900 47.614500
 112  1      12.043300 57.039700 57.255600
 113  1      60.007600 21.290000 27.301200
 114  1      33.248700 33.299500 66.437100
 115  1      44.860800 0.158542 15.299800
 116  1      27.227800 38.529500 36.541900
 117  1      18.344900 68.807200 56.982900
 118  1      63.592700 62.914500 0.361225
 119  1      3.162300 32.910000 42.156100
 120  1      45.300800 51.413400 30.160400
 121  1      66.504400 57.186900 14.734100
 122  1      39.229500 53.861500 45.106600
 123  1      60.246900 66.563200 66.572900
 124  1      45.284700 3.347020 54.344000
 125  1      57.042800 30.424900 45.354500
 126  1      36.001100 60.354200 24.154900
 127  1      48.345300 47.803600 54.576800
 128  1      21.005200 39.109300 18.085800
 129  1      39.464500 54.249000 20.836900
 130  1      38.946500 5.729020 63.392900
 131  1      6.414700 0.399584 35.794200
 132  1      5.608080 60.288800 5.836760
 133  1      23.806700 2.851170 3.228340
 134  1      29.909400 68.967700 20.963900
 135  1      63.522400 17.941400 63.150100
 136  1      24.107600 30.401500 66.456800
 137  1      36.558900 62.867300 32.953200
 138  1      3.137800 48.556700 63.035500
 139  1      32.986900 29.928900 20.809600
 140  1      65.913500 3.785520 62.864800
 141  1      11.150200 69.143900 27.148200
 142  1      35.963700 21.247800 3.343200
 143  1      29.313300 26.711100 45.113400
 144  1      39.449200 33.103800 48.160100
 145  1      32.914600 27.044400 29.755100
 146  1      35.894400 69.357100 15.177800
 147  1      48.044400 66.443500 35.965700
 148  1      2.907180 14.482300 23.858000
 149  1      6.299210 53.840000 60.215600
 150  1      8.703240 9.127690 18.040200
 151  1      63.454900 47.992900 15.013500
 152  1      0.092116 35.782600 0.042123
 153  1      48.093700 68.828000 69.414700
 154  1      11.967700 8.913750 63.347300
 155  1      42.910400 54.064300 60.159900
 156  1      45.301200 51.164500 54.235900
 157  1      38.995100 17.525100 45.503300
 158  1      27.276900 30.202100 14.904600
 159  1      33.098700 69.520600 17.794600
 160  1      5.947010 71.692800 54.230500
 161  1      57.242200 63.686000 30.070000
 162  1      21.203300 69.175300 48.033100
 163  1      3.176340 54.348100 63.080900
 164  1      69.006800 3.337720 59.990000
 165  1      11.899800 20.938500 15.120100
 166  1      57.128800 18.910700 39.445800
 167  1      62.790000 2.928790 35.744800
 168  1      23.667500 20.900900 21.043100
 169  1      14.257300 56.363100 60.369200
 170  1      24.431800 14.854200 57.062100
 171  1      47.469100 11.752500 41.669700
 172  1      15.133400 5.809640 51.148700
 173  1      48.254800 18.776800 48.537200
 174  1      51.032000 69.576300 71.826200
 175  1      2.867510 27.035400 47.657500
 176  1      15.091900 66.251900 38.997400
 177  1      51.532100 51.411700 30.448500
 178  1      3.247170 63.068200 29.764500
 179  1      17.932100 15.260400 68.859800
 180  1      36.072000 59.800600 60.261100
 181  1      29.564200 12.287400 30.369000
 182  1      30.217300 48.505400 71.553800
 183  1      36.559900 56.983800 8.955030
 184  1      36.821200 39.004400 63.038600
 185  1      41.790400 30.675900 54.471000
 186  1      35.614200 45.462900 2.885690
 187  1      21.163500 36.597100 8.892010
 188  1      26.784300 33.538600 11.926600
 189  1      63.081500 42.296000 69.216800
 190  1      -0.207340 27.318400 27.107200
 191  1      20.868700 65.986400 27.235700
 192  1      41.734800 48.194000 24.769800
 193  1      72.033200 17.716200 66.384200
 194  1      66.390300 15.967400 21.033900
 195  1      3.274630 12.377500 27.188300
 196  1      57.390500 -0.346250 21.525500
 197  1      30.395400 27.131700 56.673200
 198  1      63.314600 45.284700 66.117300
 199  1      26.914500 69.062300 18.656200
 200  1      33.803100 12.336600 45.528200
 201  1      51.599400 69.457100 54.338200
 202  1      47.887400 15.072300 69.231400
 203  1      63.955800 32.668000 0.429270
 204  1      42.147800 0.086119 48.348100
 205  1      20.185800 30.277600 8.690850
 206  1      39.185400 23.777100 21.266900
 207  1      53.799200 42.724000 30.281400
 208  1      36.407700 65.935900 30.258800
 209  1      39.223200 56.883300 30.350000
 210  1      30.180900 2.881450 27.013300
 211  1      2.742430 30.237000 33.120100
 212  1      2.916050 23.914900 62.958100
 213  1      68.711400 30.446300 27.124300
 214  1      62.491900 0.148793 26.653000
 215  1      45.101400 18.480600 50.854600
 216  1      50.632200 3.179080 65.785900
 217  1      8.894270 33.180300 41.977300
 218  1      66.224400 30.731500 65.844900
 219  1      33.725500 63.835500 54.040600
 220  1      39.418400 50.855800 53.885000
 221  1      18.024500 48.055500 65.982900
 222  1      11.631900 69.468400 9.051100
 223  1      15.133100 53.843800 27.104800
 224  1      57.396100 48.334300 38.722700
 225  1      56.931100 36.157700 15.352800
 226  1      35.887200 26.970000 51.296700
 227  1      21.111900 39.175700 6.326250
 228  1      29.338200 39.356300 56.994700
 229  1      48.045200 8.909100 21.027500
 230  1      32.697600 24.126000 45.075100
 231  1      3.237320 24.331100 57.195100
 232  1      45.412800 23.861500 3.129360
 233  1      11.726900 42.227800 18.072200
 234  1      26.898500 69.327300 60.215100
 235  1      48.021900 45.046100 3.031710
 236  1      0.915006 12.108000 66.070500
 237  1      30.341400 39.308200 20.574700
 238  1      50.547100 36.137200 33.091700
 239  1      60.277200 24.532800 0.184238
 240  1      3.338710 3.397060 60.490100
 241  1      39.139100 48.197200 33.040600
 242  1      15.203100 36.164800 9.448360
 243  1      54.742500 17.953900 41.886000
 244  1      47.939500 62.793200 56.759100
 245  1      53.710300 36.565300 48.022100
 246  1      18.077000 14.233400 44.410200
 247  1      33.129000 66.116800 39.488000
 248  1      -0.039550 42.371200 66.333400
 249  1      21.016500 51.112200 60.265300
 250  1      48.193400 17.567000 66.241600
 251  1      38.830900 39.001400 71.432900
 252  1      47.919400 33.084700 14.733800
 253  1      66.012800 45.213500 51.220500
 254  1      35.950300 20.662000 45.317500
 255  1      50.705600 57.284200 36.168300
 256  1      51.526100 48.187200 68.678400
 257  1      11.881900 65.770100 48.043300
 258  1      33.192800 54.397900 44.784300
 259  1      59.945700 48.741300 53.965500
 260  1      48.342400 2.846290 20.941200
 261  1      41.952200 30.117300 6.224270
 262  1      63.024100 62.963700 5.856750
 263  1      66.194700 48.133600 60.068600
 264  1      38.948200 9.025270 23.653000
 265  1      2.662460 51.384200 12.187400
 266  1      54.019700 54.404500 12.465800
 267  1      36.306700 14.950900 14.813200
 268  1      8.962250 65.838200 3.319230
 269  1      48.379100 47.516800 65.908200
 270  1      36.411600 12.118500 48.415800
 271  1      32.848600 32.910900 6.408880
 272  1      53.914800 45.350200 63.293500
 273  1      71.600500 5.918900 24.096800
 274  1      23.817700 17.990100 71.179800
 275  1      54.173500 9.434360 21.215000
 276  1      65.990200 60.101400 11.730600
 277  1      23.674900 50.562600 50.998600
 278  1      9.363450 63.152700 54.163800
 279  1      9.231470 66.035600 51.342500
 280  1      48.225800 6.535050 60.280300
 281  1      26.546500 21.425300 18.099200
 282  1      9.227020 20.902100 71.975500
 283  1      9.120050 3.099570 42.287100
 284  1      23.524200 21.144200 50.996100
 285  1      42.380400 47.833500 60.016000
 286  1      69.083100 54.534500 14.952700
 287  1      56.466600 45.371900 24.032400
 288  1      57.624900 30.052600 9.071050
 289  1      60.412800 51.631000 45.066200
 290  1      20.864300 32.382500 12.174400
 291  1      8.813090 69.415300 24.201100
 292  1      24.099400 39.421400 21.178200
 293  1      35.858200 9.281540 50.893900
 294  1      20.960400 5.985280 26.740400
 295  1      45.154200 36.281500 2.999430
 296  1      41.574200 30.064200 36.457800
 297  1      33.132800 5.991600 50.827000
 298  1      48.277700 24.233600 54.589400
 299  1      18.043000 17.900400 18.340000
 300  1      54.154300 36.094500 36.254500
 301  1      47.400800 48.476800 71.915600
 302  1      11.758200 38.571400 51.141200
 303  1      63.115200 27.091000 5.525000
 304  1      59.709700 71.981300 5.682580
 305  1      18.203700 17.873800 36.136500
 306  1      63.199600 15.262700 66.170600
 307  1      57.315300 33.188200 65.819300
 308  1      53.615000 15.158700 51.164800
 309  1      66.068100 2.698580 3.095140
 310  1      5.914260 32.978200 32.608600
 311  1      54.016400 66.308700 0.382897
 312  1      20.587400 30.176600 27.158900
 313  1      30.058800 32.836200 27.108000
 314  1      41.881700 8.993860 57.331100
 315  1      36.237600 24.205700 0.211782
 316  1      68.466900 14.844700 12.342100
 317  1      60.387600 6.277030 17.970300
 318  1      18.061600 8.867410 27.268400
 319  1      36.471000 39.114200 68.810200
 320  1      51.119100 60.325100 69.211900
 321  1      29.714100 32.903600 51.596100
 322  1      6.248340 42.446900 12.464500
 323  1      38.983900 42.247800 68.863700
 324  1      56.784300 21.139700 24.003000
 325  1      12.445900 3.102860 68.897300
 326  1      5.807790 72.117000 17.652600
 327  1      47.847200 36.129100 53.966200
 328  1      51.224800 15.122000 23.985700
 329  1      53.640300 6.908630 47.571200
 330  1      12.277000 66.144500 18.006100
 331  1      21.074900 8.857970 36.646000
 332  1      51.703500 9.383050 18.002400
 333  1      2.839640 57.169900 11.920600
 334  1      63.313400 56.889100 24.124500
 335  1      36.022600 27.112600 26.753200
 336  1      8.756790 48.350700 33.065200
 337  1      38.762800 60.206200 33.418400
 338  1      57.603100 26.606800 71.846500
 339  1      60.449900 18.216500 48.330200
 340  1      29.926900 9.048720 44.770700
 341  1      54.275000 33.142400 15.050300
 342  1      47.737400 23.808300 17.779800
 343  1      3.336370 51.369500 60.022800
 344  1      48.500600 9.351940 26.596800
 345  1      42.457800 2.951840 44.914800
 346  1      3.257360 42.525400 20.707600
 347  1      60.429700 0.208931 54.602900
 348  1      63.407200 3.420280 24.034500
 349  1      24.228700 3.116190 33.651600
 350  1      69.214600 60.255400 44.718500
 351  1      69.277500 69.548300 24.222100
 352  1      18.119000 32.993300 27.263100
 353  1      38.819700 69.631900 6.307870
 354  1      30.267600 63.554700 51.018000
 355  1      41.911800 59.942000 48.129500
 356  1      45.314500 3.300190 60.430500
 357  1      36.093400 24.277500 12.577200
 358  1      5.679810 30.022700 18.227700
 359  1      18.037800 29.694500 11.912900
 360  1      18.190100 23.830300 47.793200
 361  1      68.728600 -0.051867 21.189700
 362  1      39.457000 66.099000 51.052100
 363  1      50.961900 20.846100 5.643440
 364  1      14.971500 33.194500 36.296500
 365  1      5.902010 41.611000 0.064485
 366  1      39.192500 60.737700 2.905150
 367  1      60.311300 3.145100 2.941670
 368  1      66.124300 69.361400 39.394900
 369  1      2.819870 15.138800 11.992400
 370  1      69.406600 54.262800 69.329700
 371  1      38.625100 12.068200 63.659600
 372  1      69.295900 60.025900 14.506700
 373  1      54.256300 36.208900 24.157700
 374  1      59.884400 18.421900 36.093300
 375  1      29.929500 51.035800 68.831800
 376  1      66.012800 53.740100 29.817800
 377  1      6.007710 56.671800 39.215700
 378  1      33.309800 60.174100 33.395100
 379  1      14.784800 35.797100 33.583000
 380  1      24.142700 69.179600 51.053700
 381  1      21.123200 51.293100 12.322900
 382  1      63.289100 3.028410 60.306400
 383  1      63.376000 6.359260 26.560000
 384  1      36.252400 56.484000 45.062500
 385  1      41.736700 62.970400 9.254660
 386  1      42.579200 3.202670 20.557600
 387  1      48.208400 57.647300 27.419200
 388  1      3.083280 14.817100 6.032400
 389  1      72.151800 47.708500 0.317325
 390  1      47.476100 18.053100 36.565400
 391  1      68.911400 39.380700 23.953900
 392  1      24.243900 71.788300 60.393300
 393  1      62.873800 15.310200 60.089500
 394  1      66.002300 69.165500 69.538800
 395  1      42.078500 63.038700 69.664700
 396  1      11.917800 51.167800 51.329600
 397  1      14.924400 29.658500 15.265400
 398  1      11.830100 21.207700 39.110600
 399  1      60.260700 23.819000 5.859800
 400  1      44.809500 72.026200 45.543600
 401  1      51.223300 27.298700 6.024970
 402  1      11.701500 8.929000 69.119600
 403  1      57.137000 39.091400 60.444500
 404  1      54.202000 18.796100 11.792800
 405  1      65.974200 3.227680 44.877000
 406  1      20.618300 8.726480 -0.107998
 407  1      5.981860 26.858200 32.810100
 408  1      2.821120 24.298800 68.568000
 409  1      72.046000 51.261000 26.821500
 410  1      60.037500 54.004300 71.880700
 411  1      50.884500 6.267050 15.438500
 412  1      62.866000 8.772400 18.073800
 413  1      11.629900 36.149600 11.856500
 414  1      41.778400 14.835800 32.743800
 415  1      72.111400 17.615000 5.998170
 416  1      66.237300 12.414400 35.703800
 417  1      11.780300 -0.013950 17.864700
 418  1      57.205000 5.888170 44.711000
 419  1      33.074900 6.019630 33.232200
 420  1      50.856500 69.267500 18.378500
 421  1      32.530900 48.070300 51.142300
 422  1      36.231400 18.078700 11.689900
 423  1      26.571100 0.200379 26.889500
 424  1      17.689700 18.284800 5.821100
 425  1      32.920200 12.012400 33.308700
 426  1      45.156200 54.042000 33.332700
 427  1      39.338800 24.131400 69.341100
 428  1      59.836500 21.315800 51.532100
 429  1      45.079600 35.990900 45.220100
 430  1      26.787700 35.727800 63.001900
 431  1      33.228500 24.115100 33.541300
 432  1      9.030210 26.463700 29.981000
 433  1      51.249100 6.251230 50.699500
 434  1      47.494900 17.816100 30.022300
 435  1      42.393800 36.465800 18.306700
 436  1      44.907100 38.722900 23.855000
 437  1      27.036000 3.140700 11.861100
 438  1      29.478500 45.140400 33.105200
 439  1      68.981500 23.709700 27.222700
 440  1      38.985800 21.159400 72.019800
 441  1      47.691500 5.976370 42.159800
 442  1      45.707100 51.026900 60.115000
 443  1      72.388700 2.844310 9.183170
 444  1      21.169200 65.906900 63.127700
 445  1      12.266400 3.357030 50.881500
 446  1      68.837300 21.543400 35.820800
 447  1      60.410300 18.353700 66.290900
 448  1      60.187000 9.052640 62.972700
 449  1      39.615500 60.318600 15.302000
 450  1      66.247100 69.252100 51.404900
 451  1      11.748100 27.067600 38.630000
 452  1      51.450600 8.779180 66.133600
 453  1      33.543200 63.131400 36.077800
 454  1      8.927750 69.082000 30.130600
 455  1      56.676500 30.478500 21.080200
 456  1      23.610400 62.582800 14.900800
 457  1      50.510300 57.413800 17.890200
 458  1      71.816800 12.204100 11.942500
 459  1      17.809600 57.289800 62.769900
 460  1      8.566230 9.284500 66.451600
 461  1      45.544400 39.197900 6.383520
 462  1      6.027310 38.760500 32.880500
 463  1      63.325500 51.143200 60.223900
 464  1      53.863700 63.599800 69.381700
 465  1      69.015000 69.242700 0.044631
 466  1      2.636870 9.220390 11.683800
 467  1      53.838700 17.890000 6.296870
 468  1      62.606600 72.064300 32.481700
 469  1      53.846100 12.218200 66.556300
 470  1      57.487700 2.995530 60.433600
 471  1      27.080600 27.259500 5.880490
 472  1      17.717400 14.827100 33.075500
 473  1      35.836300 48.370900 11.728000
 474  1      50.803100 72.116200 51.158500
 475  1      36.127800 56.654700 56.904000
 476  1      26.918500 59.809600 15.183700
 477  1      17.953400 41.987200 72.094200
 478  1      39.384400 33.165700 35.920500
 479  1      -0.108443 15.197300 21.366800
 480  1      65.991900 21.078100 51.246500
 481  1      27.280300 41.891600 63.542700
 482  1      69.468100 30.139400 45.021900
 483  1      14.943600 60.082800 44.548300
 484  1      8.875100 51.283900 18.356000
 485  1      47.922000 68.834600 26.801400
 486  1      62.836000 33.306600 23.952200
 487  1      47.787000 5.796880 35.778500
 488  1      60.118300 8.792930 20.638500
 489  1      45.040000 72.158300 51.087400
 490  1      69.149700 57.530900 72.046400
 491  1      17.419000 38.668700 44.625500
 492  1      33.339600 51.124300 66.193200
 493  1      30.010000 26.367000 26.789900
 494  1      2.722550 36.268700 21.039900
 495  1      11.713300 60.237900 47.393900
 496  1      39.617600 51.460900 71.934600
 497  1      60.014800 45.304600 63.489200
 498  1      11.951500 33.278100 15.167500
 499  1      48.158900 50.611300 33.341700
 500  1      45.171900 65.815100 56.987700
 501  1      18.014300 47.614400 42.055000
 502  1      72.232100 32.869000 51.482400
 503  1      51.357600 3.453980 12.126100
 504  1      47.883300 20.729000 56.765200
 505  1      20.668400 59.699800 27.600200
 506  1      66.048200 20.783900 57.462900
 507  1      24.371800 9.393050 69.180100
 508  1      26.755700 36.480900 69.200000
 509  1      60.416000 12.504700 42.588600
 510  1      5.914830 32.785700 38.916400
 511  1      65.981500 3.015420 38.822400
 512  1      23.850200 69.366300 45.315400
 513  1      69.023600 62.728000 6.154640
 514  1      15.293700 11.623400 57.048500
 515  1      48.401900 35.799100 42.716700
 516  1      60.156800 26.641200 62.837200
 517  1      42.142600 12.375200 54.529000
 518  1      41.798500 66.573900 54.238100
 519  1      59.752900 30.204000 11.852900
 520  1      65.917900 18.000400 6.813930
 521  1      27.158200 53.583800 20.853500
 522  1      42.150400 8.968070 3.568320
 523  1      12.203600 54.259400 30.086300
 524  1      63.343600 36.211800 51.384300
 525  1      8.886720 47.894200 39.099900
 526  1      21.315600 63.429900 47.881500
 527  1      30.212400 18.916000 5.781190
 528  1      14.964600 38.874300 60.264700
 529  1      33.122300 71.844700 51.161900
 530  1      48.221900 32.990700 68.317200
 531  1      38.971700 29.980700 9.113270
 532  1      9.199960 54.676600 14.846800
 533  1      45.037800 9.437640 30.199300
 534  1      57.145100 0.443614 68.742100
 535  1      57.176600 65.893200 2.914560
 536  1      42.640600 51.241900 38.798600
 537  1      0.179970 9.127460 39.146400
 538  1      50.891400 9.431980 42.069200
 539  1      44.912900 8.792330 12.273700
 540  1      38.580200 51.279400 5.689190
 541  1      21.678400 12.473000 8.929410
 542  1      56.881300 45.239800 11.961100
 543  1      42.379300 57.113800 57.205100
 544  1      24.039300 11.834700 48.200500
 545  1      72.364400 57.297300 26.884700
 546  1      38.563900 65.927600 8.723850
 547  1      9.310650 6.181430 39.399900
 548  1      8.384740 50.883200 66.102600
 549  1      27.105300 20.917500 60.155300
 550  1      18.320700 57.265700 3.116940
 551  1      11.030000 53.761300 5.646290
 552  1      56.973600 33.185700 30.161100
 553  1      8.951090 2.798850 6.008240
 554  1      60.685100 54.407900 53.927100
 555  1      50.766200 72.167200 38.786800
 556  1      42.204900 18.016100 11.809200
 557  1      38.794300 42.480200 9.087790
 558  1      48.486400 39.332000 69.427000
 559  1      -0.255696 36.679800 41.903700
 560  1      5.873690 32.806000 45.322800
 561  1      44.680400 12.092600 8.781860
 562  1      24.272700 20.711900 26.979900
 563  1      14.466100 14.916100 29.615400
 564  1      47.671700 9.019510 38.821700
 565  1      54.512700 21.245400 63.444100
 566  1      11.519300 54.053700 -0.202543
 567  1      66.189000 36.367300 54.639900
 568  1      63.185600 29.971800 50.943400
 569  1      42.388400 51.208200 68.953300
 570  1      66.710300 57.303300 2.652570
 571  1      71.715700 53.973000 0.361415
 572  1      54.355400 63.131200 39.228000
 573  1      69.342000 38.732800 54.357100
 574  1      41.970500 14.992700 8.706230
 575  1      66.128600 60.512000 29.967100
 576  1      18.520000 23.599600 23.815100
 577  1      5.815800 45.336900 51.727100
 578  1      42.568100 47.782900 54.435800
 579  1      72.119200 63.513100 15.226700
 580  1      48.106700 56.746700 8.811480
 581  1      8.934960 21.656200 18.120000
 582  1      23.686000 20.982300 68.666300
 583  1      14.699500 20.891600 24.150600
 584  1      14.853300 62.625800 59.809600
 585  1      15.163200 66.098500 57.065700
 586  1      69.044600 30.398900 63.044400
 587  1      -0.132995 69.169200 45.174300
 588  1      35.438700 63.054600 44.885900
 589  1      14.963800 11.949400 20.916200
 590  1      39.156400 12.290300 69.552700
 591  1      62.937400 45.249600 42.028000
 592  1      27.136600 44.916300 54.335100
 593  1      65.953500 36.228800 23.758100
 594  1      23.785300 59.879400 29.974100
 595  1      62.947800 12.247400 45.448000
 596  1      14.540200 21.197200 12.058300
 597  1      5.926720 42.114300 54.153400
 598  1      12.875300 60.197500 30.159300
 599  1      29.616800 6.168910 0.127217
 600  1      14.761000 30.221600 20.981900
 601  1      15.157000 17.821100 62.829300
 602  1      3.011870 15.108300 36.357500
 603  1      2.843200 12.440900 51.268700
 604  1      33.082200 8.514610 48.173000
 605  1      63.319900 21.067400 48.037300
 606  1      60.013700 60.233300 30.174000
 607  1      6.540630 45.190100 69.094600
 608  1      15.178600 54.048900 44.883200
 609  1      35.727300 9.061420 45.231800
 610  1      0.662372 24.011300 23.933500
 611  1      44.837300 21.108900 36.269400
 612  1      41.960400 23.672400 42.196100
 613  1      48.336900 9.082150 32.896200
 614  1      45.513900 45.040600 42.118500
 615  1      41.915100 27.193300 51.138100
 616  1      63.464100 30.022700 45.037200
 617  1      36.340100 71.907900 0.495884
 618  1      29.640400 26.966000 8.500300
 619  1      35.726100 20.674500 39.356900
 620  1      26.760100 29.843500 44.571800
 621  1      27.268500 66.088800 33.503100
 622  1      54.266100 63.234100 21.314100
 623  1      6.336350 30.476000 71.965700
 624  1      6.455070 45.163700 63.109800
 625  1      39.819200 42.447700 62.721500
 626  1      26.549900 2.776430 30.162800
 627  1      21.216100 8.895560 12.219800
 628  1      38.700200 59.934800 27.261300
 629  1      3.192780 51.180400 29.687200
 630  1      69.342500 35.787800 56.755400
 631  1      48.075000 50.494000 2.755430
 632  1      0.207990 62.477700 2.870470
 633  1      36.334700 57.053900 14.771200
 634  1      44.839300 20.958900 23.717900
 635  1      65.999700 30.257100 42.236100
 636  1      11.781100 51.318100 63.081700
 637  1      12.092300 6.089690 42.456800
 638  1      56.956100 45.703800 66.012400
 639  1      33.316900 9.500580 23.625600
 640  1      3.088300 18.221700 8.883300
 641  1      35.555400 69.017900 32.872500
 642  1      50.910400 18.139600 9.094710
 643  1      27.180300 65.995500 69.028700
 644  1      17.912900 47.189400 24.267500
 645  1      5.833830 44.968300 3.057990
 646  1      62.991800 21.122400 0.202629
 647  1      51.112300 12.199100 69.250500
 648  1      66.397100 57.398300 51.095200
 649  1      0.060711 24.067700 54.322400
 650  1      53.982300 44.786600 2.521890
 651  1      63.138800 33.255700 66.518800
 652  1      62.917300 39.080200 72.039700
 653  1      21.034800 41.386200 50.800600
 654  1      48.258000 11.941700 35.471700
 655  1      41.780400 20.605700 32.414000
 656  1      36.203900 11.909000 11.861200
 657  1      47.901500 38.614100 21.179900
 658  1      27.277100 48.603800 2.753200
 659  1      14.902600 45.107600 23.784400
 660  1      33.118200 6.085070 45.164000
 661  1      20.783900 71.619300 33.412900
 662  1      8.437030 68.902800 11.657800
 663  1      26.963400 3.555580 5.917250
 664  1      59.926000 30.342300 59.903600
 665  1      27.289700 42.272600 14.982600
 666  1      26.778300 35.716400 39.165300
 667  1      17.820300 32.925000 14.668600
 668  1      72.082400 5.962590 6.096840
 669  1      53.958000 9.475000 68.995800
 670  1      39.159200 39.121600 12.162300
 671  1      21.382000 0.352363 51.447300
 672  1      5.880170 53.992700 30.003300
 673  1      51.207300 27.151200 36.287500
 674  1      53.600200 63.597400 27.429000
 675  1      14.644300 44.621900 5.988800
 676  1      51.123700 0.480550 27.820500
 677  1      18.106200 14.890000 27.244200
 678  1      8.890120 50.950100 60.036500
 679  1      48.165600 56.965700 33.179200
 680  1      20.753000 65.834800 2.683800
 681  1      6.351080 63.319000 51.454200
 682  1      6.259240 20.736700 44.732000
 683  1      2.523050 51.106600 71.907700
 684  1      44.986100 32.728600 18.412300
 685  1      62.994700 36.162500 45.183500
 686  1      24.124600 69.522600 56.719500
 687  1      21.124900 53.878200 50.916800
 688  1      12.193500 60.056200 60.469100
 689  1      41.931000 17.909900 48.207700
 690  1      33.556800 51.060600 72.104100
 691  1      6.824820 50.529100 56.982900
 692  1      42.032000 21.613900 62.845400
 693  1      14.810000 26.526700 60.022300
 694  1      38.978000 17.890800 3.302350
 695  1      8.507990 35.910900 39.165600
 696  1      50.745500 6.091140 38.611000
 697  1      14.836300 32.705100 30.083300
 698  1      17.303200 27.347200 9.126420
 699  1      45.326500 24.412100 57.268000