ITEM: TIMESTEP
10000
ITEM: NUMBER OF ATOMS
12442
ITEM: BOX BOUNDS xy xz yz pp pp pp
0.0000000000000000e+00 7.2169560000000004e+01 0.0000000000000000e+00
0.0000000000000000e+00 7.2169560000000004e+01 0.0000000000000000e+00
0.0000000000000000e+00 7.2169560000000004e+01 0.0000000000000000e+00
ITEM: ATOMS id element mass type x y z fx fy fz vx vy vz c_pe
1 Ge 72.64 1 71.4497 8.98067 27.283 0.49286 -0.803941 -0.44188 -4.65044 0.158187 -0.878921 -4.85204
2 Ge 72.64 1 65.9465 9.50134 63.0704 -0.0725658 0.218285 0.0886812 1.43991 -6.06957 -0.0304884 -4.74201
3 Ge 72.64 1 68.7175 30.7433 2.48781 0.0990796 -0.00955191 0.203208 3.25255 -3.73675 -1.78205 -4.5438
4 Ge 72.64 1 6.29585 51.6256 63.0869 0.329434 -0.669857 -0.510978 -3.17662 0.755649 -3.94687 -4.60282
5 Ge 72.64 1 24.1123 54.058 59.8419 -0.294246 0.0625859 1.46473 1.65645 -3.14294 1.41759 -4.56092
6 Ge 72.64 1 42.4063 20.893 44.893 -0.14146 -0.797586 0.488103 -4.52223 4.32892 2.62179 -4.66817
7 Ge 72.64 1 11.9871 9.29645 50.7469 -0.236883 -0.461076 0.0951546 2.52797 -0.966059 1.36769 -4.58354
8 Ge 72.64 1 53.9605 39.2125 45.1379 0.166771 -0.24603 -0.146109 3.67222 -2.87362 -3.32137 -4.54823
9 Ge 72.64 1 57.6773 63.2819 54.0358 -0.273778 -0.142064 -0.0603388 6.78427 3.78715 2.54652 -4.75735
10 Ge 72.64 1 60.1287 2.8497 39.2276 -0.276491 0.969493 -0.0383518 -1.31503 2.42731 5.1791 -4.62446
11 Ge 72.64 1 2.81814 0.241382 15.1779 -0.629394 -0.325305 -0.334912 -0.108367 0.414428 3.68156 -4.4692
12 Ge 72.64 1 39.3126 9.54071 60.4351 0.0605877 -0.248702 0.487228 2.58541 -2.84452 1.21365 -4.58715
13 Ge 72.64 1 17.9756 30.1479 35.8875 0.472335 0.220992 0.0304966 -1.47595 -2.22781 1.46717 -4.60304
14 Ge 72.64 1 68.6832 21.1085 18.265 0.293657 -0.283878 -0.243215 2.21401 3.49474 -1.52282 -4.56454
15 Ge 72.64 1 69.3059 50.8535 18.3151 -0.0458709 0.250007 -0.0901052 2.69728 4.03419 3.5183 -4.75958
16 Ge 72.64 1 54.3866 36.1139 71.6121 -0.667265 0.227951 0.0448634 2.25147 -0.27597 2.00462 -4.79604
17 Ge 72.64 1 60.0643 17.9192 11.7544 -0.145119 0.156918 0.0376272 4.90246 -1.52675 -0.478301 -4.4369
18 Ge 72.64 1 41.9206 60.3797 6.34234 0.0122841 -1.21083 0.381531 -0.568512 -1.66249 1.67258 -4.69746
19 Ge 72.64 1 36.1998 3.22258 69.0413 0.440221 -0.0782257 -0.346949 -3.81395 0.25787 0.0287774 -4.64855
20 Ge 72.64 1 54.3705 21.2806 69.1637 -0.175455 -0.329511 0.473355 -2.7537 -2.1543 3.16084 -4.68004
21 Ge 72.64 1 36.1098 23.8672 60.3469 -0.555669 0.0350141 -0.323436 -1.03685 2.45834 -2.30334 -4.63841
22 Ge 72.64 1 13.9286 32.3722 18.2536 0.476478 -0.0695024 -0.442997 -1.82733 0.584412 0.789413 -4.5387
23 Ge 72.64 1 66.8346 26.9723 38.8449 0.25735 -0.0057652 0.110739 -1.31657 -0.803906 3.79192 -4.73024
24 Ge 72.64 1 14.977 42.1286 62.7356 -0.193497 0.757251 -0.0665728 -3.6926 0.722015 -3.30553 -4.76179
25 Ge 72.64 1 30.0534 12.0649 65.6806 -0.453863 -1.12818 0.813388 -0.154483 -1.05729 1.60756 -4.87313
26 Ge 72.64 1 26.8084 18.4834 38.9675 0.296971 0.224731 -0.63521 -0.550862 -0.401035 -2.05615 -4.58015
27 Ge 72.64 1 9.26711 36.1148 27.2718 -0.458305 -0.0488281 -0.297385 2.14766 3.16855 -1.98603 -4.61093
28 Ge 72.64 1 29.8775 57.3381 38.9606 0.0495979 -0.344104 -0.201705 -0.436965 -0.362687 3.64431 -4.59286
29 Ge 72.64 1 45.081 36.2871 32.9917 0.160972 -0.888197 -0.236741 -0.291113 0.905262 0.900339 -4.7439
30 Ge 72.64 1 36.2537 54.1796 54.3731 0.366981 -0.951939 -0.192214 -1.20318 -0.0259396 2.91187 -4.84605
31 Ge 72.64 1 66.4107 62.8674 69.344 0.0653278 0.480859 0.113978 0.721623 -5.43289 -1.11155 -4.62342
32 Ge 72.64 1 8.71013 66.3643 9.09418 0.365845 0.187339 -0.402499 0.496835 4.35874 -2.94872 -4.79491
33 Ge 72.64 1 14.835 29.8462 68.9309 0.201148 0.165319 -0.275163 -0.950795 -1.23965 1.09008 -4.64623
34 Ge 72.64 1 69.4454 24.021 32.7925 -0.0472335 -0.296759 0.192473 2.7105 1.2474 -6.85814 -4.82899
35 Ge 72.64 1 42.582 18.1827 35.7399 -2.16863 -0.465636 -0.0841676 3.14721 0.0843417 -2.66889 -4.55215
36 Ge 72.64 1 48.528 36.3527 71.7888 0.104829 -0.537625 1.13978 0.859107 2.3016 1.33826 -4.62612
37 Ge 72.64 1 45.0959 69.0733 42.0733 -0.172642 0.293607 -0.508849 1.33301 -3.82266 -0.227248 -4.79192
38 Ge 72.64 1 66.005 39.2561 8.53144 0.0302388 0.50174 1.09853 -4.11346 0.133183 0.616532 -4.60173
39 Ge 72.64 1 69.0323 35.9324 50.995 -0.00185653 0.12833 1.10921 -3.29452 -5.42007 -0.337391 -4.42305
40 Ge 72.64 1 66.4306 6.34298 18.264 -0.617534 -0.0998737 0.211464 1.99531 -0.824257 2.84898 -4.64592
41 Ge 72.64 1 57.15 17.5606 8.82838 -0.0757068 0.470796 0.080016 2.13392 2.4153 2.88384 -4.85117
42 Ge 72.64 1 38.8147 15.2284 29.9113 0.0336087 -0.304339 -0.0918147 -1.14332 -4.2699 -4.66396 -4.73622
43 Ge 72.64 1 5.64598 5.97778 35.9906 -0.139988 0.0020124 0.0654024 -3.82965 0.98728 1.66934 -4.69252
44 Ge 72.64 1 30.1701 15.6296 45.1059 -0.147336 -0.32616 0.170235 3.71365 -2.83124 0.9916 -4.62184
45 Ge 72.64 1 32.9542 33.3317 42.2105 -0.0867891 0.0902518 -0.410292 -4.27289 -0.176802 1.86647 -4.48984
46 Ge 72.64 1 14.7004 15.8069 23.8187 0.247566 0.0461225 0.501808 -3.9713 2.25977 4.47919 -4.71705
47 Ge 72.64 1 8.93681 45.319 66.5431 0.0327327 -0.597335 -0.273342 -1.0812 4.03047 0.791488 -4.61234
48 Ge 72.64 1 57.2492 15.4953 60.414 0.0907041 0.0648207 -0.0850463 -1.89202 0.660927 1.2835 -4.54698
49 Ge 72.64 1 30.2261 32.9419 9.39104 -0.292543 -0.152283 -0.218465 -3.3025 -0.385307 -1.68863 -4.74796
50 Ge 72.64 1 69.3888 15.4167 72.0998 -0.250689 -0.0897522 -0.451606 -0.79723 1.13882 5.61413 -4.70831
51 Ge 72.64 1 54.4365 6.25001 17.9658 -1.82435 0.460503 0.0162072 2.11576 -3.20878 -2.43916 -4.49986
52 Ge 72.64 1 69.4645 41.5538 27.1954 0.0458873 0.78972 -0.608287 0.543469 -3.61514 -2.70056 -4.72861
53 Ge 72.64 1 62.7365 53.5538 9.12827 0.421729 0.246537 0.0848089 3.59772 -3.69146 0.377037 -4.46377
54 Ge 72.64 1 24.2727 45.4413 32.9261 -0.951042 -0.144169 -0.202842 2.94173 -3.73115 1.23148 -4.56181
55 Ge 72.64 1 21.544 20.8323 53.8496 0.256346 -0.373672 0.141211 -2.29027 -3.80876 2.07423 -4.68281
56 Ge 72.64 1 8.96537 33.1467 30.4397 0.414634 0.268026 -0.0253395 1.26901 1.87175 6.7269 -4.69838
57 Ge 72.64 1 6.04903 54.3115 6.21622 -0.717186 -0.353358 0.211108 -2.84119 0.369991 0.209587 -4.68566
58 Ge 72.64 1 63.631 54.4703 15.6371 -0.25758 -0.913235 -0.4136 0.795283 -0.19336 -1.35881 -4.79379
59 Ge 72.64 1 0.177047 60.0314 36.0841 0.0556651 0.190192 0.520218 -3.02966 -3.42144 -2.82965 -4.75295
60 Ge 72.64 1 30.4495 9.39193 51.0848 -0.467625 -0.247721 0.0974966 -3.59372 3.11992 5.50064 -4.60927
61 Ge 72.64 1 33.4414 35.2865 14.9417 -0.321717 -0.156958 -0.374578 4.42849 0.885473 0.930484 -4.56697
62 Ge 72.64 1 26.498 41.9348 33.4169 0.14407 0.172785 -1.19118 -2.70266 -0.361535 -5.83929 -4.66508
63 Ge 72.64 1 11.9137 2.7679 63.6228 0.112026 -0.0969446 -0.364551 -2.87708 -1.43084 -0.725326 -4.63759
64 Ge 72.64 1 57.2039 39.5269 54.2165 -0.109991 -0.272258 0.168612 -1.46374 -1.55768 -2.43263 -4.83295
65 Ge 72.64 1 32.8304 47.9515 20.8545 0.339198 -0.250173 0.303539 2.98828 4.82553 -4.87126 -4.47722
66 Ge 72.64 1 33.0189 23.9518 8.56062 -0.8721 0.177505 -0.103584 0.70744 0.604435 1.45307 -4.66618
67 Ge 72.64 1 27.5058 11.7678 21.1409 0.0735717 0.262062 0.258392 3.40031 -1.14669 1.07422 -4.56185
68 Ge 72.64 1 33.4052 50.757 12.2335 -0.416139 0.18306 -0.234854 -3.89554 0.247468 1.30235 -4.54557
69 Ge 72.64 1 63.1667 66.8099 57.0412 0.148308 -0.138996 -0.0513965 -0.617706 1.53847 -3.60511 -4.66084
70 Ge 72.64 1 2.52447 57.6272 30.0814 0.276339 -0.359741 0.131236 -2.28501 -2.08009 -2.94357 -4.70647
71 Ge 72.64 1 36.1211 5.58376 71.8584 0.0348546 0.148308 0.397184 -0.352097 -4.06616 -1.25259 -4.50021
72 Ge 72.64 1 54.504 6.13746 30.5819 0.147102 -0.137803 -0.682828 2.46013 3.09909 -0.871584 -4.71645
73 Ge 72.64 1 50.8771 38.8521 11.8996 0.0729346 -0.202449 -0.318008 1.21392 0.458644 1.47252 -4.62771
74 Ge 72.64 1 72.0833 56.731 21.5617 -0.08219 0.230643 -0.852667 0.560509 -1.66018 2.39787 -4.61586
75 Ge 72.64 1 59.9571 6.06089 60.0146 0.749349 0.310625 0.364395 -3.13769 1.56196 -4.95543 -4.6932
76 Ge 72.64 1 66.3545 45.2763 14.8658 -0.373496 -0.0253971 -0.281816 -3.3309 2.04394 -4.58944 -4.41954
77 Ge 72.64 1 44.8083 47.9237 14.8584 0.121341 0.352453 -0.955648 3.56907 -0.0748535 -5.40343 -4.71121
78 Ge 72.64 1 57.2062 66.374 32.9574 0.306845 0.550204 0.197386 -1.79577 1.99438 -1.52375 -4.46137
79 Ge 72.64 1 24.1974 8.8485 15.2767 -0.0601612 -0.0616069 -0.190592 1.27367 -1.27141 1.07631 -4.59954
80 Ge 72.64 1 38.3796 6.32861 44.9795 0.80975 -0.313336 -1.01749 0.412465 -2.4743 1.48328 -4.76803
81 Ge 72.64 1 8.64291 57.2227 30.363 -0.107076 0.183311 0.193134 1.03342 0.546673 4.2144 -4.60485
82 Ge 72.64 1 33.1847 27.0888 35.9633 -0.100493 -0.348089 -0.126017 0.300613 0.706304 0.605127 -4.59595
83 Ge 72.64 1 18.0606 35.855 24.0552 0.421248 0.18037 -0.0545785 -3.23627 -0.737777 -3.41046 -4.70468
84 Ge 72.64 1 60.0318 30.3261 23.5078 0.47414 -0.22074 0.327292 1.38397 -2.76214 -0.0867172 -4.33169
85 Ge 72.64 1 12.1499 62.9433 38.9547 -0.0249202 -0.1314 0.242203 0.402931 -0.966744 -2.07325 -4.70916
86 Ge 72.64 1 26.9497 44.7683 12.4956 0.15472 0.222128 -0.612531 0.567314 2.2618 -4.64319 -4.60932
87 Ge 72.64 1 42.1155 54.459 24.116 0.388225 -0.198347 -0.215107 -3.05762 -3.72677 0.142756 -4.87298
88 Ge 72.64 1 24.5551 62.7648 20.8642 -0.238862 -0.0352049 -0.06168 2.27434 -2.49855 -2.64482 -4.53892
89 Ge 72.64 1 32.8652 26.7942 54.7494 0.569025 0.323418 -0.761302 1.70738 1.96918 1.63467 -4.77636
90 Ge 72.64 1 27.0816 51.2294 66.0434 -0.00318127 0.107204 -0.0481864 -0.832213 0.882861 -0.465293 -4.6416
91 Ge 72.64 1 17.8718 5.90045 72.0393 0.680969 -0.00444199 0.29319 -0.563877 -3.60495 -1.22083 -4.76714
92 Ge 72.64 1 38.461 17.7256 63.3128 0.250997 0.490213 0.0891557 4.34355 0.549921 -2.26306 -4.71767
93 Ge 72.64 1 26.5552 9.53021 36.6679 0.0102699 -0.49866 -0.882658 2.65163 -0.707081 1.83914 -4.75096
94 Ge 72.64 1 11.7992 27.5664 2.80338 -0.336596 -0.09751 -0.290133 6.47185 -0.235791 3.71042 -4.64496
95 Ge 72.64 1 42.1875 47.8726 18.0967 0.0634885 0.669574 0.128567 -0.196741 -3.29267 4.9868 -4.6859
96 Ge 72.64 1 69.153 66.416 21.5373 -0.744953 0.0792964 -0.256007 -3.48919 1.78084 -3.66936 -4.65682
97 Ge 72.64 1 60.0298 35.9432 29.6369 0.0686988 0.49223 0.726916 -0.607077 5.72359 6.24357 -4.68337
98 Ge 72.64 1 56.6857 42.4036 33.1881 1.72597 -0.289714 0.129454 1.63298 -3.20012 -2.52346 -4.62644
99 Ge 72.64 1 47.9199 69.1883 15.1084 0.457704 0.170896 0.338067 1.30835 2.6457 -3.3495 -4.65005
100 Ge 72.64 1 9.1451 9.02769 48.2468 -0.585254 0.525172 -0.583541 -0.959415 1.85147 0.55223 -4.89036
101 Ge 72.64 1 6.36512 33.0054 9.1433 -0.180798 0.619369 -0.0983155 1.08351 1.11538 6.16134 -4.73092
102 Ge 72.64 1 24.9393 0.101126 35.9647 -0.561367 0.0230978 0.802135 -1.19588 0.84627 -5.00112 -4.70134
103 Ge 72.64 1 29.9028 44.8841 20.7513 0.131686 0.206965 0.536223 -1.33488 5.13082 -0.627751 -4.84531
104 Ge 72.64 1 23.8758 30.1957 5.67233 -0.475103 -0.306821 0.425692 -3.4478 -2.73281 1.76827 -4.76545
105 Ge 72.64 1 50.7249 23.9834 26.8677 0.539383 -0.24936 0.601642 2.63257 1.94744 -2.17329 -4.64489
106 Ge 72.64 1 20.7811 3.06623 24.6185 0.2601 0.347173 -0.167489 -2.40881 2.28197 -1.77547 -4.55648
107 Ge 72.64 1 5.58393 45.6938 39.1632 0.517774 -0.347915 0.138417 0.933931 -2.70262 0.643683 -4.8257
108 Ge 72.64 1 57.1462 29.7904 69.1435 0.292541 -0.271513 0.0562446 4.22822 0.085854 -2.8055 -4.76125
109 Ge 72.64 1 30.2379 39.0119 63.3634 0.0616224 0.197662 -0.076094 -4.04634 -3.61923 2.0847 -4.84416
110 Ge 72.64 1 23.7895 66.1383 23.9871 0.305065 -0.949594 0.24642 3.91599 1.51741 2.65836 -4.54172
111 Ge 72.64 1 69.093 51.1967 48.287 0.404039 -0.34069 -0.279512 -2.37294 -0.0330619 2.79052 -4.48031
112 Ge 72.64 1 12.1101 54.5111 54.1148 0.0928243 -0.877061 -0.0137245 2.76114 1.28721 -1.29059 -4.58208
113 Ge 72.64 1 59.9612 21.0665 27.1958 0.334147 -0.347959 0.012332 5.83629 1.29087 5.42532 -4.68096
114 Ge 72.64 1 32.6724 32.9028 66.4338 -0.238833 0.673521 0.0357297 2.49954 -1.79472 -1.33686 -4.6788
115 Ge 72.64 1 44.6862 0.172157 14.4626 0.437123 -0.111447 1.18084 1.46045 0.443004 2.86063 -4.66271
116 Ge 72.64 1 26.7913 38.9449 36.2534 0.31806 -0.344026 -0.562439 -2.40928 1.43445 -5.25384 -4.81187
117 Ge 72.64 1 17.838 68.9111 56.4943 0.534966 0.0874987 0.914946 1.2023 1.99319 -4.33835 -4.63474
118 Ge 72.64 1 63.6999 63.2691 72.1104 -1.11488 0.491825 0.0541385 -0.49607 -1.05843 3.43195 -4.822
119 Ge 72.64 1 3.21207 35.8501 44.7278 -0.248004 -0.376951 -0.2533 -1.09982 2.71866 -3.36122 -4.61276
120 Ge 72.64 1 44.9764 51.0276 30.2105 0.214886 -0.0234538 -0.0753641 -2.76395 -1.29159 -2.24626 -4.7127
121 Ge 72.64 1 66.0486 57.423 15.0654 0.0727325 -0.505961 -0.0402146 3.75508 -0.606701 1.29628 -4.64086
122 Ge 72.64 1 39.3518 53.5185 45.119 -0.257136 0.415218 -0.434739 1.45253 1.34566 -2.75973 -4.76023
123 Ge 72.64 1 60.3113 66.2131 65.8352 -0.415451 0.125143 0.281697 -0.87543 -2.67021 -2.80797 -4.65205
124 Ge 72.64 1 45.6246 3.18176 54.1388 0.176841 0.0577126 0.40926 -2.92181 1.3886 5.40083 -4.68524
125 Ge 72.64 1 54.8475 30.0744 41.8583 0.103408 -0.281732 0.733576 -0.359569 -2.04013 0.473277 -4.65702
126 Ge 72.64 1 36.0509 60.2455 23.8858 0.267118 0.036061 2.21152 1.71898 3.67477 2.55851 -4.70131
127 Ge 72.64 1 48.4955 47.9162 54.1654 0.317725 -0.241707 -0.267452 -3.79404 -3.00286 -1.03161 -4.4377
128 Ge 72.64 1 21.3847 39.1545 18.0523 -0.634347 0.165001 0.142234 3.26887 -0.13517 1.93378 -4.43174
129 Ge 72.64 1 39.0526 54.3526 20.8888 -0.0811684 0.0623882 1.19657 1.62387 0.0488998 0.238058 -4.63661
130 Ge 72.64 1 39.105 6.20818 63.2613 -0.0555802 -0.211612 0.149092 -4.65707 2.32377 1.07345 -4.60178
131 Ge 72.64 1 5.58322 72.1877 30.0984 0.257438 -0.115384 -0.114759 6.04953 1.11591 6.07913 -4.6368
132 Ge 72.64 1 5.74448 60.2321 6.01165 -0.480846 -0.0417295 0.181013 -1.63298 -1.1418 0.236725 -4.84037
133 Ge 72.64 1 23.9905 2.77827 2.92745 -0.68363 0.182821 -0.477083 0.725492 1.20005 -2.96989 -4.60742
134 Ge 72.64 1 29.7031 68.9494 20.8231 0.500821 0.27594 -0.138602 -4.26289 1.67988 1.00712 -4.69147
135 Ge 72.64 1 63.2349 17.65 62.4698 0.212151 -0.705197 0.196381 4.6929 2.79678 0.842134 -4.71887
136 Ge 72.64 1 23.8949 30.9748 66.1657 0.262854 -1.43611 -0.633641 -1.25687 -3.38063 3.08458 -4.67685
137 Ge 72.64 1 36.6826 62.7568 33.1558 -0.433408 0.511348 0.101972 3.25672 -0.584544 2.04125 -4.4152
138 Ge 72.64 1 3.14321 48.3954 63.7616 0.172857 -0.222875 0.271316 2.7424 0.0495862 2.0617 -4.58418
139 Ge 72.64 1 32.7121 29.9711 21.2266 -0.364018 -2.18728 0.799139 2.49495 5.7982 1.35712 -4.39389
140 Ge 72.64 1 65.9773 2.91534 63.1043 0.219987 0.339792 -0.961515 -1.02406 -0.555366 1.16462 -4.72452
141 Ge 72.64 1 11.559 68.9951 27.3525 0.343667 -0.198954 0.11256 -4.45021 0.486473 -5.04576 -4.84054
142 Ge 72.64 1 36.2568 23.7155 5.70502 -0.237468 0.660054 -0.141504 2.46573 4.76627 -3.60566 -4.81167
143 Ge 72.64 1 30.2239 26.5927 45.0119 -0.419863 0.0708244 0.481478 -1.04739 -1.49754 1.35141 -4.63695
144 Ge 72.64 1 39.5868 32.7481 47.7493 -0.472578 0.397359 0.636541 3.70576 5.73959 0.94358 -4.60709
145 Ge 72.64 1 32.9466 23.9782 27.174 0.50779 0.473082 0.440845 -1.8863 3.63037 -4.60281 -4.6721
146 Ge 72.64 1 35.807 68.797 15.1993 0.303196 0.220033 0.106167 -2.58846 -1.5363 -4.72432 -4.70358
147 Ge 72.64 1 48.3712 66.5815 35.8817 0.0175382 -0.534358 0.752437 -2.76185 1.12185 0.221372 -4.48373
148 Ge 72.64 1 2.95917 15.0271 24.593 0.0539189 -0.913752 -0.0838125 -1.82995 -3.76609 -0.571775 -4.69033
149 Ge 72.64 1 9.08489 54.2063 63.2994 0.296595 -0.214743 0.0498171 0.523868 -0.597392 2.10687 -4.7588
150 Ge 72.64 1 8.79667 8.79322 18.2136 -0.502036 0.57712 -0.767271 -3.28907 -2.55309 -2.14803 -4.61013
151 Ge 72.64 1 66.2998 48.4685 11.9888 -0.00887504 -0.438299 0.315065 -4.30669 -3.56809 0.404803 -4.69486
152 Ge 72.64 1 2.89003 36.3115 2.95726 0.00746271 -0.532297 -0.713922 -0.15376 4.53093 -1.03871 -4.86941
153 Ge 72.64 1 48.1597 66.5745 71.8878 0.127839 -0.157683 0.453634 0.65671 -1.05692 -3.88796 -4.64007
154 Ge 72.64 1 12.4105 9.25423 62.6859 -0.706258 0.00479057 1.17568 -2.13605 -1.94423 3.01476 -4.70021
155 Ge 72.64 1 42.202 54.1418 60.0147 0.524626 0.0734604 0.236023 -2.499 1.24135 -0.946627 -4.66268
156 Ge 72.64 1 45.5832 50.8304 54.0586 -0.555425 0.186907 -0.375362 -0.162938 0.113117 1.87771 -4.62165
157 Ge 72.64 1 39.276 17.4953 45.0935 0.331454 0.320745 0.211695 -0.289639 -2.5314 3.98955 -4.51388
158 Ge 72.64 1 27.4366 29.9421 14.9607 -0.24156 -0.131585 -0.864099 3.12217 -0.620651 -0.982122 -4.60684
159 Ge 72.64 1 33.1464 69.2316 17.7428 -0.0835737 0.377128 -0.150722 0.268936 -0.709893 2.63209 -4.5469
160 Ge 72.64 1 5.52113 0.0763785 53.8932 0.460453 -0.321758 -0.0730065 1.30025 0.475309 -0.980232 -4.59891
161 Ge 72.64 1 56.7366 63.3953 30.3491 0.170825 -0.301838 -0.246188 -0.250498 0.200887 0.125546 -4.46407
162 Ge 72.64 1 21.1216 68.8963 48.0797 -0.0428336 -0.0848994 0.444262 -1.19146 3.00526 -2.28363 -4.61044
163 Ge 72.64 1 2.88245 54.1202 63.755 0.294898 0.218164 -0.572332 2.9161 -3.20517 5.04028 -4.6793
164 Ge 72.64 1 69.1948 3.04202 60.0976 -0.0530469 -0.226787 0.266792 -1.0338 -2.25579 4.27469 -4.73954
165 Ge 72.64 1 11.9859 20.906 14.7845 -0.257723 0.243917 0.461369 -3.7752 -0.105663 -3.31162 -4.81318
166 Ge 72.64 1 59.8333 21.4953 39.4306 0.0560626 -0.457549 -0.316162 1.50739 0.748202 -1.62563 -4.71517
167 Ge 72.64 1 62.9871 3.11942 36.1105 -0.490583 0.32068 -0.0410385 3.27439 -0.972969 3.58063 -4.60565
168 Ge 72.64 1 21.0814 20.9595 18.1246 -0.335292 -0.23109 3.46665e-05 -0.907381 -1.46716 1.24369 -4.66674
169 Ge 72.64 1 14.7882 56.723 60.1211 -0.123028 -0.366656 -0.195102 -6.59901 2.13503 -3.59493 -4.68287
170 Ge 72.64 1 24.1019 15.4202 57.1711 -0.0279001 -0.494935 0.248785 0.267378 -0.138614 -0.14151 -4.90861
171 Ge 72.64 1 44.9978 8.90062 41.8839 0.289845 0.148592 0.186466 -3.41496 -1.58181 -2.03579 -4.41491
172 Ge 72.64 1 14.7959 6.29328 50.943 0.061794 -0.0139887 -0.289744 0.036714 -6.59543 -3.95583 -4.74233
173 Ge 72.64 1 48.1293 18.1526 48.115 0.231747 0.531553 -0.080173 3.77131 7.0031 -0.482255 -4.57019
174 Ge 72.64 1 51.1115 66.3908 69.4587 0.343488 0.415084 -0.632666 -2.59303 -2.06364 -1.17096 -4.72697
175 Ge 72.64 1 3.23347 26.9716 48.2606 -1.09736 -0.202717 -0.274241 0.136003 -2.15228 -1.16185 -4.63925
176 Ge 72.64 1 15.1705 65.8766 38.2581 0.0289016 0.265369 1.18779 4.60204 -3.05663 -7.82434 -4.45184
177 Ge 72.64 1 51.4094 51.7172 30.2117 -0.316972 -0.371446 0.110712 -4.29854 -1.91099 -1.20122 -4.54051
178 Ge 72.64 1 2.80727 63.2437 29.8307 0.373085 0.496462 0.0679641 0.926526 -1.91974 -1.07082 -4.75869
179 Ge 72.64 1 18.1289 15.1747 69.0716 -0.534061 -0.451608 -0.520503 3.18958 -2.18006 1.19085 -4.406
180 Ge 72.64 1 36.145 60.5836 60.2629 -0.0897586 -0.5526 0.174155 1.46967 -0.295076 1.18733 -4.43877
181 Ge 72.64 1 29.6883 12.368 30.1061 -0.4055 0.301677 0.215982 -5.30341 0.152911 -1.54589 -4.4665
182 Ge 72.64 1 29.6791 47.9272 0.480086 1.17122 -0.617833 -0.470997 3.65142 -0.77963 0.529063 -4.65783
183 Ge 72.64 1 35.9852 56.8785 8.84618 0.178418 0.448726 0.252252 2.82527 -1.6624 -0.148678 -4.65294
184 Ge 72.64 1 36.3184 39.0926 63.4907 0.272596 0.859091 0.284407 4.68935 -1.04282 0.163066 -4.70105
185 Ge 72.64 1 42.2924 30.6723 54.1227 0.441915 -0.471715 -0.180806 0.362554 -2.32865 2.01294 -4.54933
186 Ge 72.64 1 36.5709 44.9431 3.60602 -0.148677 0.702743 -0.0294717 2.46845 -0.793401 2.27627 -4.66117
187 Ge 72.64 1 24.5596 39.1926 8.65189 -0.339738 0.322775 0.616748 -0.571839 4.54778 1.19245 -4.68261
188 Ge 72.64 1 24.1021 32.994 9.23184 -0.222387 -0.251974 0.00877989 0.681086 2.77634 1.52503 -4.8879
189 Ge 72.64 1 62.826 42.2908 68.9296 0.229424 -0.518648 0.296401 2.69655 2.81905 1.22505 -4.53285
190 Ge 72.64 1 0.361593 27.0465 27.394 0.365379 0.778948 0.0906235 2.03017 -1.55125 -0.163576 -4.66307
191 Ge 72.64 1 20.5586 66.061 27.2638 0.720157 -0.308858 0.215652 0.0919597 3.35946 1.52176 -4.63497
192 Ge 72.64 1 42.2836 48.562 24.2566 -0.391934 0.0234572 -0.396395 4.37501 4.15839 -3.35541 -4.66589
193 Ge 72.64 1 71.9608 18.7004 66.2407 -0.160672 0.172858 0.436746 3.80177 -1.28413 -1.68026 -4.91564
194 Ge 72.64 1 66.3749 15.0755 20.7776 0.245494 0.136302 1.40014 -1.6035 -2.25084 -0.663877 -4.78257
195 Ge 72.64 1 3.15069 11.777 27.1578 -0.239493 0.324956 -0.696298 2.40318 -3.34083 -1.23214 -4.85871
196 Ge 72.64 1 56.8812 72.2206 21.0004 0.18916 -0.103013 -0.159404 0.753552 5.89819 -0.262264 -4.55821
197 Ge 72.64 1 30.3538 26.6849 57.4383 0.0694912 0.486511 0.130492 -0.434782 3.48018 3.20235 -4.71128
198 Ge 72.64 1 63.2753 45.0482 65.6298 -0.0975993 0.0134393 0.23091 -6.0022 6.19617 -4.98692 -4.51129
199 Ge 72.64 1 27.1611 68.9302 17.8259 0.00363789 -0.135019 -0.211209 -1.39145 0.374041 -2.57031 -4.56661
200 Ge 72.64 1 33.0672 12.063 45.1685 -0.132643 0.386941 -0.0726283 1.36141 2.12376 -2.82357 -4.53869
201 Ge 72.64 1 51.2855 68.4998 54.1758 0.235669 1.12813 -0.474825 2.68109 5.63708 4.18536 -4.60388
202 Ge 72.64 1 48.1352 14.845 69.0264 -0.287572 0.214097 0.465616 -5.60951 1.22083 0.779519 -4.79827
203 Ge 72.64 1 63.9305 33.1429 71.8934 -0.996051 0.103164 -0.0714791 -0.813446 -1.55115 1.86544 -4.78431
204 Ge 72.64 1 42.0245 0.294965 48.477 0.372275 0.390759 -0.452485 1.43173 0.741462 -4.31247 -4.60918
205 Ge 72.64 1 21.2474 33.2113 5.56192 0.422474 -0.434195 0.189025 3.51657 2.07879 2.36005 -4.71307
206 Ge 72.64 1 39.1043 24.0237 21.2353 -0.386698 0.0242847 -0.0401967 -3.30788 -0.945799 1.47313 -4.63831
207 Ge 72.64 1 54.1397 42.0937 30.2977 0.204514 0.252044 -0.329913 0.47433 -3.20042 -1.77372 -4.45596
208 Ge 72.64 1 36.5703 65.9376 29.6683 0.365004 0.162884 0.239773 -1.41031 -5.93429 2.71229 -4.62371
209 Ge 72.64 1 38.9744 57.1523 29.9905 -0.759522 -0.0308007 0.0349063 -3.11966 2.09814 -1.16829 -4.53996
210 Ge 72.64 1 30.0929 3.15492 27.2914 -0.295951 -0.399796 -0.0365427 0.219047 4.37762 3.36385 -4.75422
211 Ge 72.64 1 2.98422 30.4844 33.5491 0.218901 -0.231522 0.182845 -0.949415 -2.5914 -0.0779641 -4.62104
212 Ge 72.64 1 3.30072 21.1712 60.2018 -0.627949 -0.350787 1.31915 5.75148 0.755999 3.43732 -4.75586
213 Ge 72.64 1 69.501 30.0774 27.748 -0.135853 -0.3748 -0.683036 3.46429 -6.49399 -4.89196 -4.69938
214 Ge 72.64 1 63.6202 0.354534 26.9878 -0.968262 -0.612543 -0.637094 3.11294 -1.71999 2.82626 -4.77141
215 Ge 72.64 1 45.0866 17.9452 50.8745 -0.329082 0.0816968 0.526544 4.90181 2.19206 5.22748 -4.71102
216 Ge 72.64 1 51.2351 0.146314 63.3007 -0.0270768 0.283241 0.427244 -2.46977 -4.03957 -3.4725 -4.68777
217 Ge 72.64 1 9.39164 32.9105 41.2645 -0.593105 -0.0439081 0.231069 -0.900286 1.60237 0.103496 -4.72953
218 Ge 72.64 1 66.1824 30.0571 66.0375 -0.0778272 0.172616 0.0819545 -2.44517 2.2184 -1.82277 -4.78545
219 Ge 72.64 1 33.1247 63.3995 54.056 -0.1699 -0.376453 0.384154 0.84491 3.45554 0.389271 -4.52955
220 Ge 72.64 1 39.6295 50.9422 54.467 0.0072806 0.0405988 0.29949 2.10343 -4.08346 4.10465 -4.84806
221 Ge 72.64 1 17.5961 47.5034 66.3271 -0.58973 0.467647 -0.758665 -0.951457 -1.72171 1.3155 -4.60799
222 Ge 72.64 1 11.8624 68.7307 8.83441 -0.14668 0.446824 0.314214 3.38818 2.14757 -3.4353 -4.69286
223 Ge 72.64 1 15.2864 53.9336 27.3792 -0.539077 1.25607 0.281944 1.06206 1.56162 -2.48339 -4.60668
224 Ge 72.64 1 57.3917 47.8249 39.1731 -0.151304 0.636795 0.407331 4.05363 0.084779 3.09454 -4.5256
225 Ge 72.64 1 56.9748 36.4735 14.9493 0.0894713 0.338556 0.447873 -1.48196 -3.10658 -0.0855756 -4.61873
226 Ge 72.64 1 36.206 26.5586 50.8391 -0.00551489 1.43989 0.275987 -0.525904 -0.824787 -3.4427 -4.44282
227 Ge 72.64 1 21.1241 38.7145 6.07031 -0.170674 0.38302 0.0870713 -2.55043 -6.13741 2.62662 -4.67495
228 Ge 72.64 1 30.0772 39.893 57.4954 0.115001 -1.0049 -0.352992 -0.391662 -0.944822 -1.3073 -4.53596
229 Ge 72.64 1 50.8498 5.69546 20.9266 0.15267 0.0186517 -0.179131 0.713382 3.98979 -1.09121 -4.81442
230 Ge 72.64 1 26.6497 20.6646 47.9834 0.243042 0.11044 0.256521 5.77931 8.69837 0.739942 -4.33888
231 Ge 72.64 1 3.08952 23.5415 57.288 0.438615 -0.158377 0.002368 6.16074 -4.90024 0.97829 -4.53095
232 Ge 72.64 1 44.8718 23.6988 3.44399 -0.0685238 -0.782885 -0.568373 2.62567 1.27319 1.46742 -4.55853
233 Ge 72.64 1 12.4105 42.2142 17.8784 -0.52597 0.234718 -0.00458545 -5.01834 5.59478 2.51551 -4.64405
234 Ge 72.64 1 26.7604 69.2554 59.8705 -0.259897 -0.0134301 0.213866 -2.56276 -1.3186 2.65071 -4.64988
235 Ge 72.64 1 47.6093 45.3841 3.10119 0.846076 -0.23445 -0.881603 1.747 1.89947 -5.24048 -4.67514
236 Ge 72.64 1 3.31963 9.80475 65.943 -0.328549 -0.318273 0.296276 -3.18002 0.0303744 -4.87971 -4.69975
237 Ge 72.64 1 30.1661 38.8766 20.7682 -0.570703 -0.0732325 -0.265084 0.300091 2.45247 -0.576031 -4.5452
238 Ge 72.64 1 51.4106 35.8705 32.5876 -0.520739 0.462489 0.156718 -2.30392 -1.07038 -6.07648 -4.60786
239 Ge 72.64 1 60.5089 24.2594 71.9656 -0.14852 -0.327212 -0.272224 1.68581 5.53374 -2.28204 -4.77946
240 Ge 72.64 1 3.47143 3.53849 60.3302 -1.46861 -0.181758 -0.080811 1.02487 -2.62416 0.984877 -4.46336
241 Ge 72.64 1 39.0172 44.5075 35.7878 -0.100215 0.638347 -0.0948047 5.82868 -2.05462 1.70251 -4.8401
242 Ge 72.64 1 18.2806 38.595 8.62331 -0.34084 0.0300634 0.485557 -1.51936 -1.3568 -1.90093 -4.86995
243 Ge 72.64 1 54.5356 18.2524 41.9779 -0.165352 0.321485 -0.220663 -2.51133 -4.55134 1.71068 -4.66084
244 Ge 72.64 1 48.637 62.5887 57.105 -0.0103973 0.321147 0.205194 -0.749631 -2.15187 -3.98712 -4.47108
245 Ge 72.64 1 54.1692 36.2337 48.2779 0.0203553 -0.311719 0.0887374 -6.37281 0.215171 4.502 -4.65803
246 Ge 72.64 1 18.0421 15.0875 44.6431 -0.243865 0.0656024 0.815401 -3.01277 3.46952 0.69028 -4.60794
247 Ge 72.64 1 33.0927 66.5298 39.0191 -0.425 -0.578773 -0.147545 2.59947 2.82433 -0.0748764 -4.72524
248 Ge 72.64 1 71.8982 42.1094 65.8734 0.334623 -0.678171 -0.254411 -0.421609 -0.931616 -0.626867 -4.64174
249 Ge 72.64 1 21.3306 51.2287 60.4096 0.0997438 -0.645169 0.388311 -0.92473 3.883 -1.48514 -4.69933
250 Ge 72.64 1 48.1708 18.1735 66.5555 -0.60299 -0.0203872 -0.616129 -0.782163 -0.303281 -1.77889 -4.44113
251 Ge 72.64 1 39.0992 39.2263 72.0476 -0.138778 -0.351409 -0.531768 -3.89587 0.92127 3.08899 -4.6725
252 Ge 72.64 1 48.2117 33.3264 14.9586 0.106894 -0.285811 0.335921 -0.0429955 -2.02022 -1.42488 -4.65333
253 Ge 72.64 1 66.1425 45.3381 51.2968 0.117312 -0.960766 0.446385 -0.284524 4.69268 -0.331814 -4.56935
254 Ge 72.64 1 35.807 20.9363 44.4772 0.0495929 0.21351 0.95696 2.37276 -2.70178 1.36755 -4.69053
255 Ge 72.64 1 50.0453 57.6102 36.062 0.693157 -0.245592 0.111782 1.73721 1.43148 -4.13145 -4.74518
256 Ge 72.64 1 51.273 45.7711 65.635 0.193206 -1.01439 0.02186 -1.91109 2.54411 -2.31658 -4.82654
257 Ge 72.64 1 11.9828 65.9345 48.0131 -0.622703 -0.461244 -0.085219 2.36651 3.90421 -3.00096 -4.56769
258 Ge 72.64 1 33.6182 54.3436 45.1055 -0.206981 -0.0953345 -0.293503 -1.80168 -1.58121 1.0628 -4.64699
259 Ge 72.64 1 60.4748 48.2507 53.9936 -0.349581 -0.365206 0.0991761 3.00619 -1.64335 -0.0979679 -4.72323
260 Ge 72.64 1 45.6932 2.54271 17.9034 -0.138949 0.129219 0.245499 -1.17391 0.156524 1.5884 -4.64514
261 Ge 72.64 1 41.9098 29.9512 5.81561 0.262706 0.270737 0.280334 -1.16991 -6.02953 -0.192073 -4.4683
262 Ge 72.64 1 62.9349 63.7819 5.96889 -0.775859 -0.54819 0.0409321 -0.654068 -2.92044 7.61173 -4.52924
263 Ge 72.64 1 66.2145 47.9454 60.2802 -0.235179 0.110314 -0.607819 -2.40002 -3.43802 0.0223868 -4.76775
264 Ge 72.64 1 39.3594 8.89702 23.9194 0.256066 0.149794 -0.413584 -2.9134 -2.59949 -0.232542 -4.62968
265 Ge 72.64 1 2.74597 51.1188 12.2512 1.11751 0.500199 0.0951439 -0.894671 4.05918 -2.92009 -4.46416
266 Ge 72.64 1 54.872 53.8669 12.0792 -0.9588 0.0466981 0.294119 -1.86836 -3.55939 3.41581 -4.4639
267 Ge 72.64 1 36.2242 14.9177 15.5416 0.305669 0.0190042 -1.14824 5.03266 -1.01016 2.94723 -4.62425
268 Ge 72.64 1 8.57179 66.201 2.9462 0.903614 0.257749 0.0108374 1.64226 2.24125 -3.1027 -4.76083
269 Ge 72.64 1 51.318 48.228 68.7461 0.141228 -0.293727 -0.0992083 -4.98321 -5.23389 -3.60504 -4.39104
270 Ge 72.64 1 35.8701 11.6639 47.7326 -0.0213744 0.183124 0.591924 2.97385 1.70352 0.768165 -4.54516
271 Ge 72.64 1 33.0268 33.0421 6.98568 -0.247061 0.416849 -0.296202 1.18135 -4.32613 -1.3873 -4.51162
272 Ge 72.64 1 48.6422 45.2843 62.9899 0.527517 -0.741872 -0.389317 -2.74388 6.1435 2.40346 -4.72359
273 Ge 72.64 1 69.9137 3.44134 24.5481 -1.24615 0.125814 -0.255889 -7.56359 4.73755 1.96535 -4.52541
274 Ge 72.64 1 24.1717 18.3126 72.0341 0.342465 -0.870161 -0.377503 0.873736 -1.53669 4.65565 -4.73996
275 Ge 72.64 1 54.6337 9.15879 21.1664 -0.495205 -0.0180861 -0.220287 -3.75495 2.42884 -1.63587 -4.64393
276 Ge 72.64 1 66.2787 60.5402 11.8706 0.21794 -0.471426 0.0459068 2.15873 0.909301 -3.20273 -4.39702
277 Ge 72.64 1 23.7935 50.8159 51.1583 -0.0736088 0.248467 0.0772632 -2.22674 8.34853 -0.211673 -4.44263
278 Ge 72.64 1 8.77995 62.7417 54.1726 0.274832 -0.361429 -0.231073 -1.18254 -1.80228 0.0443135 -4.67377
279 Ge 72.64 1 8.52965 65.9878 51.2745 0.220875 -0.103487 0.0793496 -4.30247 2.65526 3.6586 -4.78628
280 Ge 72.64 1 48.7655 6.05399 61.0525 -0.00801669 -0.430398 -1.26704 0.0574397 1.90887 -0.762948 -4.82112
281 Ge 72.64 1 26.584 21.4287 18.1406 0.87839 0.212782 0.222109 5.5118 -0.384354 0.736933 -4.63119
282 Ge 72.64 1 8.92062 21.0792 71.9899 0.272912 -0.51631 0.113644 0.308826 5.49383 0.933563 -4.68794
283 Ge 72.64 1 9.06868 0.289464 44.9268 -0.31759 -0.514773 0.174909 3.80891 -0.704198 3.29834 -4.70547
284 Ge 72.64 1 24.1609 17.972 48.5473 0.187812 -0.277357 0.13057 2.49551 3.62855 2.61516 -4.5086
285 Ge 72.64 1 42.2121 48.307 59.7932 -0.265357 -0.158201 0.34138 -1.38975 1.55375 0.968071 -4.77002
286 Ge 72.64 1 69.2637 57.7855 11.9248 -0.121412 -1.43848 -0.212298 3.17236 -0.555241 2.78442 -4.55421
287 Ge 72.64 1 56.7934 45.2735 24.0655 -0.169611 -0.00557194 0.451534 0.630294 -0.0713369 -3.52368 -4.5458
288 Ge 72.64 1 57.1729 30.259 9.02903 -0.323548 -0.134157 -0.0137954 -3.54209 3.23089 1.69956 -4.81022
289 Ge 72.64 1 60.0751 51.3693 44.9761 0.952563 -0.225303 0.482633 1.66137 0.181471 3.52691 -4.84316
290 Ge 72.64 1 21.4894 32.9539 11.4377 -0.0162414 0.103676 0.459081 2.04568 -5.43802 3.55008 -4.73703