# Converted from POSCAR to lammps format

12442 atoms
3 atom types

0.000000   72.169560   xlo xhi
0.000000   72.169560   ylo yhi
0.000000   72.169560   zlo zhi

  0.000000    0.000000    0.000000   xy xz yz

Atoms

   1  1      71.449700 8.980670 27.283000
   2  1      65.946500 9.501340 63.070400
   3  1      68.717500 30.743300 2.487810
   4  1      6.295850 51.625600 63.086900
   5  1      24.112300 54.058000 59.841900
   6  1      42.406300 20.893000 44.893000
   7  1      11.987100 9.296450 50.746900
   8  1      53.960500 39.212500 45.137900
   9  1      57.677300 63.281900 54.035800
  10  1      60.128700 2.849700 39.227600
  11  1      2.818140 0.241382 15.177900
  12  1      39.312600 9.540710 60.435100
  13  1      17.975600 30.147900 35.887500
  14  1      68.683200 21.108500 18.265000
  15  1      69.305900 50.853500 18.315100
  16  1      54.386600 36.113900 71.612100
  17  1      60.064300 17.919200 11.754400
  18  1      41.920600 60.379700 6.342340
  19  1      36.199800 3.222580 69.041300
  20  1      54.370500 21.280600 69.163700
  21  1      36.109800 23.867200 60.346900
  22  1      13.928600 32.372200 18.253600
  23  1      66.834600 26.972300 38.844900
  24  1      14.977000 42.128600 62.735600
  25  1      30.053400 12.064900 65.680600
  26  1      26.808400 18.483400 38.967500
  27  1      9.267110 36.114800 27.271800
  28  1      29.877500 57.338100 38.960600
  29  1      45.081000 36.287100 32.991700
  30  1      36.253700 54.179600 54.373100
  31  1      66.410700 62.867400 69.344000
  32  1      8.710130 66.364300 9.094180
  33  1      14.835000 29.846200 68.930900
  34  1      69.445400 24.021000 32.792500
  35  1      42.582000 18.182700 35.739900
  36  1      48.528000 36.352700 71.788800
  37  1      45.095900 69.073300 42.073300
  38  1      66.005000 39.256100 8.531440
  39  1      69.032300 35.932400 50.995000
  40  1      66.430600 6.342980 18.264000
  41  1      57.150000 17.560600 8.828380
  42  1      38.814700 15.228400 29.911300
  43  1      5.645980 5.977780 35.990600
  44  1      30.170100 15.629600 45.105900
  45  1      32.954200 33.331700 42.210500
  46  1      14.700400 15.806900 23.818700
  47  1      8.936810 45.319000 66.543100
  48  1      57.249200 15.495300 60.414000
  49  1      30.226100 32.941900 9.391040
  50  1      69.388800 15.416700 72.099800
  51  1      54.436500 6.250010 17.965800
  52  1      69.464500 41.553800 27.195400
  53  1      62.736500 53.553800 9.128270
  54  1      24.272700 45.441300 32.926100
  55  1      21.544000 20.832300 53.849600
  56  1      8.965370 33.146700 30.439700
  57  1      6.049030 54.311500 6.216220
  58  1      63.631000 54.470300 15.637100
  59  1      0.177047 60.031400 36.084100
  60  1      30.449500 9.391930 51.084800
  61  1      33.441400 35.286500 14.941700
  62  1      26.498000 41.934800 33.416900
  63  1      11.913700 2.767900 63.622800
  64  1      57.203900 39.526900 54.216500
  65  1      32.830400 47.951500 20.854500
  66  1      33.018900 23.951800 8.560620
  67  1      27.505800 11.767800 21.140900
  68  1      33.405200 50.757000 12.233500
  69  1      63.166700 66.809900 57.041200
  70  1      2.524470 57.627200 30.081400
  71  1      36.121100 5.583760 71.858400
  72  1      54.504000 6.137460 30.581900
  73  1      50.877100 38.852100 11.899600
  74  1      72.083300 56.731000 21.561700
  75  1      59.957100 6.060890 60.014600
  76  1      66.354500 45.276300 14.865800
  77  1      44.808300 47.923700 14.858400
  78  1      57.206200 66.374000 32.957400
  79  1      24.197400 8.848500 15.276700
  80  1      38.379600 6.328610 44.979500
  81  1      8.642910 57.222700 30.363000
  82  1      33.184700 27.088800 35.963300
  83  1      18.060600 35.855000 24.055200
  84  1      60.031800 30.326100 23.507800
  85  1      12.149900 62.943300 38.954700
  86  1      26.949700 44.768300 12.495600
  87  1      42.115500 54.459000 24.116000
  88  1      24.555100 62.764800 20.864200
  89  1      32.865200 26.794200 54.749400
  90  1      27.081600 51.229400 66.043400
  91  1      17.871800 5.900450 72.039300
  92  1      38.461000 17.725600 63.312800
  93  1      26.555200 9.530210 36.667900
  94  1      11.799200 27.566400 2.803380
  95  1      42.187500 47.872600 18.096700
  96  1      69.153000 66.416000 21.537300
  97  1      60.029800 35.943200 29.636900
  98  1      56.685700 42.403600 33.188100
  99  1      47.919900 69.188300 15.108400
 100  1      9.145100 9.027690 48.246800
 101  1      6.365120 33.005400 9.143300
 102  1      24.939300 0.101126 35.964700
 103  1      29.902800 44.884100 20.751300
 104  1      23.875800 30.195700 5.672330
 105  1      50.724900 23.983400 26.867700
 106  1      20.781100 3.066230 24.618500
 107  1      5.583930 45.693800 39.163200
 108  1      57.146200 29.790400 69.143500
 109  1      30.237900 39.011900 63.363400
 110  1      23.789500 66.138300 23.987100
 111  1      69.093000 51.196700 48.287000
 112  1      12.110100 54.511100 54.114800
 113  1      59.961200 21.066500 27.195800
 114  1      32.672400 32.902800 66.433800
 115  1      44.686200 0.172157 14.462600
 116  1      26.791300 38.944900 36.253400
 117  1      17.838000 68.911100 56.494300
 118  1      63.699900 63.269100 72.110400
 119  1      3.212070 35.850100 44.727800
 120  1      44.976400 51.027600 30.210500
 121  1      66.048600 57.423000 15.065400
 122  1      39.351800 53.518500 45.119000
 123  1      60.311300 66.213100 65.835200
 124  1      45.624600 3.181760 54.138800
 125  1      54.847500 30.074400 41.858300
 126  1      36.050900 60.245500 23.885800
 127  1      48.495500 47.916200 54.165400
 128  1      21.384700 39.154500 18.052300
 129  1      39.052600 54.352600 20.888800
 130  1      39.105000 6.208180 63.261300
 131  1      5.583220 72.187700 30.098400
 132  1      5.744480 60.232100 6.011650
 133  1      23.990500 2.778270 2.927450
 134  1      29.703100 68.949400 20.823100
 135  1      63.234900 17.650000 62.469800
 136  1      23.894900 30.974800 66.165700
 137  1      36.682600 62.756800 33.155800
 138  1      3.143210 48.395400 63.761600
 139  1      32.712100 29.971100 21.226600
 140  1      65.977300 2.915340 63.104300
 141  1      11.559000 68.995100 27.352500
 142  1      36.256800 23.715500 5.705020
 143  1      30.223900 26.592700 45.011900
 144  1      39.586800 32.748100 47.749300
 145  1      32.946600 23.978200 27.174000
 146  1      35.807000 68.797000 15.199300
 147  1      48.371200 66.581500 35.881700
 148  1      2.959170 15.027100 24.593000
 149  1      9.084890 54.206300 63.299400
 150  1      8.796670 8.793220 18.213600
 151  1      66.299800 48.468500 11.988800
 152  1      2.890030 36.311500 2.957260
 153  1      48.159700 66.574500 71.887800
 154  1      12.410500 9.254230 62.685900
 155  1      42.202000 54.141800 60.014700
 156  1      45.583200 50.830400 54.058600
 157  1      39.276000 17.495300 45.093500
 158  1      27.436600 29.942100 14.960700
 159  1      33.146400 69.231600 17.742800
 160  1      5.521130 0.076379 53.893200
 161  1      56.736600 63.395300 30.349100
 162  1      21.121600 68.896300 48.079700
 163  1      2.882450 54.120200 63.755000
 164  1      69.194800 3.042020 60.097600
 165  1      11.985900 20.906000 14.784500
 166  1      59.833300 21.495300 39.430600
 167  1      62.987100 3.119420 36.110500
 168  1      21.081400 20.959500 18.124600
 169  1      14.788200 56.723000 60.121100
 170  1      24.101900 15.420200 57.171100
 171  1      44.997800 8.900620 41.883900
 172  1      14.795900 6.293280 50.943000
 173  1      48.129300 18.152600 48.115000
 174  1      51.111500 66.390800 69.458700
 175  1      3.233470 26.971600 48.260600
 176  1      15.170500 65.876600 38.258100
 177  1      51.409400 51.717200 30.211700
 178  1      2.807270 63.243700 29.830700
 179  1      18.128900 15.174700 69.071600
 180  1      36.145000 60.583600 60.262900
 181  1      29.688300 12.368000 30.106100
 182  1      29.679100 47.927200 0.480086
 183  1      35.985200 56.878500 8.846180
 184  1      36.318400 39.092600 63.490700
 185  1      42.292400 30.672300 54.122700
 186  1      36.570900 44.943100 3.606020
 187  1      24.559600 39.192600 8.651890
 188  1      24.102100 32.994000 9.231840
 189  1      62.826000 42.290800 68.929600
 190  1      0.361593 27.046500 27.394000
 191  1      20.558600 66.061000 27.263800
 192  1      42.283600 48.562000 24.256600
 193  1      71.960800 18.700400 66.240700
 194  1      66.374900 15.075500 20.777600
 195  1      3.150690 11.777000 27.157800
 196  1      56.881200 72.220600 21.000400
 197  1      30.353800 26.684900 57.438300
 198  1      63.275300 45.048200 65.629800
 199  1      27.161100 68.930200 17.825900
 200  1      33.067200 12.063000 45.168500
 201  1      51.285500 68.499800 54.175800
 202  1      48.135200 14.845000 69.026400
 203  1      63.930500 33.142900 71.893400
 204  1      42.024500 0.294965 48.477000
 205  1      21.247400 33.211300 5.561920
 206  1      39.104300 24.023700 21.235300
 207  1      54.139700 42.093700 30.297700
 208  1      36.570300 65.937600 29.668300
 209  1      38.974400 57.152300 29.990500
 210  1      30.092900 3.154920 27.291400
 211  1      2.984220 30.484400 33.549100
 212  1      3.300720 21.171200 60.201800
 213  1      69.501000 30.077400 27.748000
 214  1      63.620200 0.354534 26.987800
 215  1      45.086600 17.945200 50.874500
 216  1      51.235100 0.146314 63.300700
 217  1      9.391640 32.910500 41.264500
 218  1      66.182400 30.057100 66.037500
 219  1      33.124700 63.399500 54.056000
 220  1      39.629500 50.942200 54.467000
 221  1      17.596100 47.503400 66.327100
 222  1      11.862400 68.730700 8.834410
 223  1      15.286400 53.933600 27.379200
 224  1      57.391700 47.824900 39.173100
 225  1      56.974800 36.473500 14.949300
 226  1      36.206000 26.558600 50.839100
 227  1      21.124100 38.714500 6.070310
 228  1      30.077200 39.893000 57.495400
 229  1      50.849800 5.695460 20.926600
 230  1      26.649700 20.664600 47.983400
 231  1      3.089520 23.541500 57.288000
 232  1      44.871800 23.698800 3.443990
 233  1      12.410500 42.214200 17.878400
 234  1      26.760400 69.255400 59.870500
 235  1      47.609300 45.384100 3.101190
 236  1      3.319630 9.804750 65.943000
 237  1      30.166100 38.876600 20.768200
 238  1      51.410600 35.870500 32.587600
 239  1      60.508900 24.259400 71.965600
 240  1      3.471430 3.538490 60.330200
 241  1      39.017200 44.507500 35.787800
 242  1      18.280600 38.595000 8.623310
 243  1      54.535600 18.252400 41.977900
 244  1      48.637000 62.588700 57.105000
 245  1      54.169200 36.233700 48.277900
 246  1      18.042100 15.087500 44.643100
 247  1      33.092700 66.529800 39.019100
 248  1      71.898200 42.109400 65.873400
 249  1      21.330600 51.228700 60.409600
 250  1      48.170800 18.173500 66.555500
 251  1      39.099200 39.226300 72.047600
 252  1      48.211700 33.326400 14.958600
 253  1      66.142500 45.338100 51.296800
 254  1      35.807000 20.936300 44.477200
 255  1      50.045300 57.610200 36.062000
 256  1      51.273000 45.771100 65.635000
 257  1      11.982800 65.934500 48.013100
 258  1      33.618200 54.343600 45.105500
 259  1      60.474800 48.250700 53.993600
 260  1      45.693200 2.542710 17.903400
 261  1      41.909800 29.951200 5.815610
 262  1      62.934900 63.781900 5.968890
 263  1      66.214500 47.945400 60.280200
 264  1      39.359400 8.897020 23.919400
 265  1      2.745970 51.118800 12.251200
 266  1      54.872000 53.866900 12.079200
 267  1      36.224200 14.917700 15.541600
 268  1      8.571790 66.201000 2.946200
 269  1      51.318000 48.228000 68.746100
 270  1      35.870100 11.663900 47.732600
 271  1      33.026800 33.042100 6.985680
 272  1      48.642200 45.284300 62.989900
 273  1      69.913700 3.441340 24.548100
 274  1      24.171700 18.312600 72.034100
 275  1      54.633700 9.158790 21.166400
 276  1      66.278700 60.540200 11.870600
 277  1      23.793500 50.815900 51.158300
 278  1      8.779950 62.741700 54.172600
 279  1      8.529650 65.987800 51.274500
 280  1      48.765500 6.053990 61.052500
 281  1      26.584000 21.428700 18.140600
 282  1      8.920620 21.079200 71.989900
 283  1      9.068680 0.289464 44.926800
 284  1      24.160900 17.972000 48.547300
 285  1      42.212100 48.307000 59.793200
 286  1      69.263700 57.785500 11.924800
 287  1      56.793400 45.273500 24.065500
 288  1      57.172900 30.259000 9.029030
 289  1      60.075100 51.369300 44.976100
 290  1      21.489400 32.953900 11.437700
 291  1      8.752470 69.223800 23.697300
 292  1      26.610300 39.088100 24.212900
 293  1      36.092100 9.219650 51.162400
 294  1      20.801700 6.252460 27.293400
 295  1      45.612400 36.282900 2.989030
 296  1      42.111600 30.285000 35.989500
 297  1      33.062400 5.803850 51.262700
 298  1      47.541600 24.388500 54.195300
 299  1      17.957000 18.091100 18.198300
 300  1      54.577100 36.153500 36.398300
 301  1      48.106700 48.186900 0.180415
 302  1      12.243200 36.416000 54.119000
 303  1      63.520900 27.085400 5.750050
 304  1      59.874700 71.939500 5.301160
 305  1      18.310300 18.285000 36.505900
 306  1      65.876200 18.060000 66.005800
 307  1      57.587200 32.498500 66.015600
 308  1      54.401300 15.156700 50.884300
 309  1      68.781700 0.300839 3.050540
 310  1      5.911360 33.101500 33.675800
 311  1      54.103600 66.935400 0.148886
 312  1      20.659200 29.956100 26.841600
 313  1      30.154100 32.950300 26.882800
 314  1      42.168500 8.966510 57.335200
 315  1      33.630000 26.573000 0.057467
 316  1      65.928500 17.540500 12.630600
 317  1      60.081700 6.075420 18.418100
 318  1      17.898400 9.354680 26.984300
 319  1      36.208800 38.716500 69.217700
 320  1      50.748900 60.382500 69.301300
 321  1      30.205600 32.642900 51.319800
 322  1      6.017210 42.311800 12.173100
 323  1      39.145500 41.968600 69.004500
 324  1      57.175100 20.857700 23.779200
 325  1      12.639900 2.736560 69.007800
 326  1      5.671120 71.783600 17.989400
 327  1      47.564400 36.678300 54.164500
 328  1      50.940300 14.951600 23.945300
 329  1      54.305500 8.893050 44.623300
 330  1      12.028900 66.102000 18.098800
 331  1      20.470800 9.179530 36.194600
 332  1      51.321300 8.451920 18.182100
 333  1      2.865980 57.586400 12.384500
 334  1      63.436300 57.129700 23.717900
 335  1      33.462500 27.154200 24.418100
 336  1      5.632900 47.923600 30.295100
 337  1      38.747500 60.063200 33.350700
 338  1      57.522300 27.018600 71.759000
 339  1      60.197800 18.055000 48.072900
 340  1      30.048500 6.146140 42.145400
 341  1      54.486100 33.540400 15.057200
 342  1      48.134200 24.432100 18.123600
 343  1      2.998960 51.230400 60.905100
 344  1      51.131600 11.860800 26.716200
 345  1      42.372100 3.218450 45.093300
 346  1      2.554830 41.908000 21.599900
 347  1      59.876300 -0.023875 54.584600
 348  1      63.577600 3.090520 23.871300
 349  1      24.107700 3.977090 32.909700
 350  1      69.171200 59.762000 45.072000
 351  1      69.357300 69.514200 24.899100
 352  1      20.980500 32.917600 23.883700
 353  1      36.403600 72.191000 5.551280
 354  1      32.828300 66.234100 50.988700
 355  1      42.608700 59.954000 47.999200
 356  1      45.189800 3.444760 60.630500
 357  1      36.150300 24.024100 11.626600
 358  1      5.872120 30.219300 17.998600
 359  1      21.074000 27.273500 11.696900
 360  1      18.080200 24.038700 48.274000
 361  1      68.726500 0.195908 20.608400
 362  1      35.502600 66.383400 53.400100
 363  1      50.998400 20.405400 5.729540
 364  1      14.978900 33.166800 35.629800
 365  1      2.731720 45.579700 71.731900
 366  1      39.075200 59.297800 3.411480
 367  1      60.179300 3.367330 2.736090
 368  1      66.086300 69.099500 39.533200
 369  1      2.591410 14.998700 12.100500
 370  1      69.468200 54.219300 69.451100
 371  1      38.773100 12.291700 63.117700
 372  1      69.687000 60.258800 15.071900
 373  1      54.268900 36.252400 24.124300
 374  1      59.923600 17.946800 36.442200
 375  1      30.164600 50.835400 69.645900
 376  1      68.964400 57.662700 30.262000
 377  1      6.191860 53.131700 40.002700
 378  1      30.018700 60.771600 36.579600
 379  1      15.024600 36.258900 33.198700
 380  1      29.797500 69.045600 50.872100
 381  1      20.899800 51.099600 12.034700
 382  1      62.890200 3.005170 60.086300
 383  1      63.129200 6.286640 26.846300
 384  1      36.296200 56.910400 45.266000
 385  1      41.955100 63.015600 9.178450
 386  1      42.475700 3.422660 20.719700
 387  1      47.874200 57.013800 27.159800
 388  1      3.196300 15.238700 5.923630
 389  1      71.498800 47.554100 0.284576
 390  1      48.466500 17.993300 36.395600
 391  1      69.563500 38.845400 24.044600
 392  1      24.179600 0.115449 60.068400
 393  1      62.882500 12.281000 57.182200
 394  1      65.712800 69.396200 69.130800
 395  1      41.908300 62.940000 69.757700
 396  1      12.081200 50.869700 51.316300
 397  1      14.911800 29.987700 14.866800
 398  1      11.798800 20.826600 38.598300
 399  1      60.114400 23.502300 5.934180
 400  1      45.039000 71.369500 45.180100
 401  1      51.005900 26.943900 6.167970
 402  1      12.183200 9.092290 69.116300
 403  1      59.496000 39.984700 57.582100
 404  1      54.002300 18.112200 11.965900
 405  1      66.126300 2.875360 44.811000
 406  1      20.655300 9.158720 0.199973
 407  1      6.128090 27.123000 33.138400
 408  1      2.509630 27.203300 66.088500
 409  1      69.055900 48.650400 26.898200
 410  1      62.726900 51.277000 0.477273
 411  1      51.129600 6.072880 15.257300
 412  1      63.149600 8.924520 18.375000
 413  1      12.329700 35.805800 12.049500
 414  1      42.178500 15.060000 32.799400
 415  1      72.044700 18.160300 5.939260
 416  1      66.058700 12.165500 36.166900
 417  1      11.813400 0.385041 18.643200
 418  1      56.785100 6.123160 44.690300
 419  1      33.069800 5.761090 33.167700
 420  1      51.319500 69.496200 18.387000
 421  1      32.888300 47.996700 51.224100
 422  1      36.477000 17.660400 11.580800
 423  1      26.646000 0.068872 26.822200
 424  1      18.415300 17.810900 5.552920
 425  1      32.576500 12.013800 32.875000
 426  1      44.944600 54.531600 33.077200
 427  1      41.902500 27.067300 69.170200
 428  1      59.574200 21.268500 50.858300
 429  1      45.128500 36.204500 45.174100
 430  1      26.978700 36.150500 63.652800
 431  1      35.824100 26.707900 32.487600
 432  1      9.213020 27.318200 30.294500
 433  1      51.340700 5.744960 51.466100
 434  1      48.085500 15.516600 33.270700
 435  1      42.723300 36.523700 18.148400
 436  1      45.021900 39.247200 23.700400
 437  1      26.825600 2.545760 11.721400
 438  1      29.863100 45.030300 33.135200
 439  1      69.420000 24.235300 27.078300
 440  1      39.849900 20.873300 -0.045568
 441  1      51.064500 3.785150 42.186600
 442  1      45.009100 51.304000 59.950500
 443  1      3.031520 0.428434 9.096740
 444  1      21.401600 65.641700 63.759300
 445  1      11.893900 2.946570 50.799900
 446  1      69.172900 21.239500 35.973700
 447  1      60.602900 18.311600 66.085900
 448  1      60.277500 9.084960 62.717000
 449  1      39.384500 59.680100 14.904900
 450  1      65.882200 69.364700 51.118600
 451  1      12.251700 26.856300 39.219300
 452  1      50.772100 8.753270 65.975100
 453  1      33.274300 63.045100 36.526600
 454  1      8.806880 68.754900 30.227500
 455  1      57.380000 30.152900 21.423700
 456  1      23.813600 63.036000 15.152800
 457  1      51.242300 56.880500 17.858000
 458  1      69.049300 14.773200 11.801700
 459  1      17.938400 57.139600 63.295100
 460  1      9.269260 9.783100 65.854700
 461  1      44.890900 38.837200 6.151170
 462  1      6.472560 39.406900 33.165300
 463  1      62.845100 50.580200 59.862100
 464  1      54.108700 63.080500 69.590600
 465  1      0.204271 66.118100 0.398380
 466  1      2.944080 8.546870 12.465200
 467  1      53.889800 17.973600 5.740890
 468  1      63.429900 72.107100 33.234200
 469  1      53.943500 12.546500 0.412256
 470  1      56.904700 3.149850 60.323000
 471  1      27.178300 27.310600 6.095230
 472  1      17.889700 14.901100 33.110400
 473  1      35.832000 47.750900 11.748400
 474  1      51.187500 72.023500 50.919100
 475  1      36.155200 56.798900 57.368000
 476  1      27.095100 59.597900 14.993200
 477  1      18.347500 42.231400 71.769500
 478  1      38.815000 33.173600 36.077800
 479  1      0.225668 14.994000 21.118400
 480  1      63.448600 24.039800 51.082200
 481  1      26.832000 42.260300 63.028800
 482  1      70.081100 30.579700 45.249900
 483  1      17.715200 60.563700 47.547700
 484  1      9.374850 50.374000 18.345600
 485  1      47.969200 69.065900 27.236400
 486  1      63.900900 33.224500 23.502400
 487  1      48.254400 5.719530 35.912500
 488  1      57.305000 8.755600 18.255500
 489  1      45.180700 0.157548 50.909600
 490  1      68.547100 57.153200 0.034025
 491  1      17.468600 32.883400 44.960800
 492  1      33.161000 51.179200 66.606200
 493  1      30.022700 29.976900 24.236700
 494  1      2.755120 35.799200 21.324200
 495  1      12.154700 57.427600 45.232600
 496  1      38.770100 50.718600 0.695815
 497  1      60.150700 44.928600 63.011700
 498  1      12.280800 33.230100 14.836500
 499  1      47.753100 51.487300 33.144700
 500  1      44.987000 66.683600 57.281100
 501  1      17.751100 48.255900 42.038400
 502  1      72.185200 32.873700 51.018300
 503  1      51.053300 3.154860 12.334100
 504  1      48.106400 21.392300 56.611200
 505  1      21.025700 57.158000 29.832900
 506  1      65.908400 20.729400 56.655500
 507  1      23.563600 9.149060 68.625100
 508  1      27.239500 36.169700 68.792900
 509  1      59.636700 12.318300 42.220200
 510  1      5.703430 33.218000 39.078100
 511  1      65.851900 3.102920 38.965600
 512  1      23.740800 68.688600 45.197100
 513  1      68.615400 60.505200 3.104120
 514  1      15.635400 12.380500 57.269800
 515  1      48.316300 36.137500 42.342700
 516  1      57.076800 30.444600 63.256500
 517  1      42.115400 11.738600 54.417400
 518  1      41.968500 66.545200 54.135300
 519  1      60.007800 30.063900 11.969200
 520  1      66.249000 17.566600 6.046840
 521  1      27.087800 53.562900 20.643000
 522  1      42.537100 8.645580 3.226800
 523  1      11.644100 54.088900 30.643700
 524  1      63.011200 36.221000 51.432900
 525  1      11.725100 48.412200 36.125400
 526  1      20.400200 62.792400 48.134800
 527  1      30.111000 17.776700 5.740390
 528  1      17.983400 39.184100 63.300300
 529  1      32.919700 71.952500 51.375800
 530  1      48.259800 32.807500 69.555300
 531  1      39.082600 30.123300 9.123720
 532  1      8.937760 54.118500 15.514200
 533  1      45.316600 9.196240 30.332800
 534  1      60.476300 0.187614 66.616300
 535  1      57.246100 66.343100 2.805150
 536  1      42.301600 51.145800 39.435900
 537  1      69.245000 9.422650 41.907100
 538  1      48.072400 6.031080 41.586100
 539  1      45.053000 8.841690 11.329900
 540  1      38.997400 50.881100 6.858360
 541  1      21.047700 11.797700 8.921740
 542  1      57.056300 45.060700 11.344000
 543  1      42.570200 56.563300 57.301700
 544  1      23.893600 11.905300 47.991000
 545  1      72.021700 56.875300 26.884600
 546  1      39.076300 66.133500 9.230970
 547  1      8.861460 6.443030 39.287800
 548  1      12.329300 53.631000 66.223700
 549  1      30.192900 21.304300 57.296000
 550  1      18.944600 56.204900 3.137940
 551  1      11.541500 53.770000 5.931080
 552  1      57.109800 33.326700 29.625600
 553  1      6.497350 -0.053401 5.811440
 554  1      59.804500 54.311800 53.914600
 555  1      48.167000 0.126509 36.296800
 556  1      42.166400 17.397900 11.818800
 557  1      38.812900 42.473600 9.365140
 558  1      48.247500 36.177400 66.165700
 559  1      69.595200 39.100800 41.815700
 560  1      6.474960 33.449900 44.828200
 561  1      45.174600 11.757300 8.866380
 562  1      23.889800 20.908800 26.937200
 563  1      14.984900 15.339700 30.250900
 564  1      48.018500 9.484980 38.285400
 565  1      54.374400 20.921200 62.913900
 566  1      12.184100 53.843400 0.050034
 567  1      63.434000 33.245000 53.821200
 568  1      62.828100 29.833600 50.989400
 569  1      45.634400 48.428300 69.258900
 570  1      68.996600 54.188300 3.195240
 571  1      71.738000 53.764000 0.208216
 572  1      54.010000 63.527600 39.529600
 573  1      68.817100 38.779400 54.093000
 574  1      41.798000 14.794700 8.830340
 575  1      65.926800 60.131400 30.225400
 576  1      18.651100 21.116600 21.386100
 577  1      6.074980 44.761000 51.808800
 578  1      42.810800 47.903400 54.287800
 579  1      0.065385 63.169500 15.037800
 580  1      47.787100 56.791800 9.415840
 581  1      9.272780 21.025100 17.988100
 582  1      23.941000 15.474700 68.800900
 583  1      17.803800 23.556800 24.025500
 584  1      12.495500 65.916700 60.412200
 585  1      18.515700 65.831700 60.076500
 586  1      69.608800 30.515800 63.312000
 587  1      71.948900 69.246600 45.034700
 588  1      36.243000 63.307800 44.994600
 589  1      14.632300 12.195400 21.148400
 590  1      39.298800 12.131000 69.458500
 591  1      63.196300 45.392900 42.617300
 592  1      27.257800 45.237700 54.059600
 593  1      66.570100 36.133700 23.774500
 594  1      20.971500 59.846800 27.240100
 595  1      63.143800 12.095500 44.882900
 596  1      14.955500 21.367400 12.339400
 597  1      9.349050 45.171300 53.847000
 598  1      11.927500 60.286500 30.536200
 599  1      30.090100 5.900820 71.977500
 600  1      12.306500 29.779800 23.609900
 601  1      15.298200 17.833600 63.117300
 602  1      2.953160 14.841000 35.998500
 603  1      0.096949 15.188000 51.411900
 604  1      32.602800 8.773190 48.158600
 605  1      63.033100 20.719900 47.857500
 606  1      60.001400 60.399900 30.330900
 607  1      8.859370 45.183800 -0.002079
 608  1      15.120800 54.451100 45.134700
 609  1      35.933000 9.258170 45.268000
 610  1      0.210843 24.080200 24.036000
 611  1      45.162000 20.947200 35.921300
 612  1      42.278400 23.708900 41.878400
 613  1      48.103000 9.412630 32.553200
 614  1      45.097600 45.341900 42.322100
 615  1      39.475200 30.016800 50.490900
 616  1      63.649300 29.993000 44.757200
 617  1      36.653600 71.705200 0.044550
 618  1      30.308900 26.579300 8.758320
 619  1      35.766600 21.423400 38.710500
 620  1      26.478300 29.952600 45.126500
 621  1      27.135000 66.260800 33.154800
 622  1      54.208500 63.151700 20.936200
 623  1      5.960410 30.208600 72.092700
 624  1      6.288010 45.589700 62.982800
 625  1      38.864100 39.281300 60.968700
 626  1      26.859700 3.361500 30.175900
 627  1      21.029600 8.492020 12.051100
 628  1      38.842000 60.258500 27.000400
 629  1      2.647240 51.501800 30.171000
 630  1      68.778800 36.180500 56.962500
 631  1      47.851300 51.434000 3.041210
 632  1      71.750800 60.127200 0.401505
 633  1      36.211700 57.189300 14.750600
 634  1      42.069900 24.200200 30.020600
 635  1      66.234800 32.947300 45.088600
 636  1      9.380360 48.337200 63.538300
 637  1      12.188400 6.037880 42.266800
 638  1      57.502500 45.294900 65.905600
 639  1      33.110400 9.182670 23.791000
 640  1      2.878870 18.079700 8.785890
 641  1      36.339700 69.104200 32.963200
 642  1      50.984000 17.980700 8.848970
 643  1      26.908700 69.080900 65.720600
 644  1      18.062100 48.105600 24.025700
 645  1      5.694670 45.092200 2.803430
 646  1      63.113700 21.290100 0.101935
 647  1      54.455000 9.125930 3.300070
 648  1      66.091400 56.917200 51.858400
 649  1      66.406200 24.165800 53.849900
 650  1      54.265500 45.300500 2.617340
 651  1      63.548900 33.030800 65.909400
 652  1      63.521500 38.815400 0.100708
 653  1      20.689300 41.861000 51.334900
 654  1      47.991700 11.755300 35.457900
 655  1      42.565500 20.963500 32.710800
 656  1      36.159300 9.121570 14.505100
 657  1      48.307300 38.894700 20.517600
 658  1      27.445100 48.161600 2.936240
 659  1      14.889700 45.483000 23.842700
 660  1      32.497300 6.308190 44.878200
 661  1      21.713300 0.265528 32.901900
 662  1      8.935180 69.101400 11.736200
 663  1      27.353000 2.549750 5.581630
 664  1      60.142300 30.161500 59.724000
 665  1      27.208200 42.092900 15.202100
 666  1      26.868200 35.390300 39.185800
 667  1      18.554300 30.039600 12.376000
 668  1      0.315985 6.099590 6.592530
 669  1      53.835100 12.111500 66.202800
 670  1      39.263100 39.188900 12.246200
 671  1      21.215400 72.043900 50.705600
 672  1      5.470960 54.426800 30.113500
 673  1      51.127400 26.659200 36.084000
 674  1      53.471300 63.070700 26.859700
 675  1      15.098700 48.013100 8.800950
 676  1      50.844800 0.369513 26.295700
 677  1      17.892900 15.416500 27.034100
 678  1      9.051120 51.127200 60.577300
 679  1      47.718800 57.372800 33.487400
 680  1      20.865800 65.857300 2.373130
 681  1      6.358460 66.342000 54.272000
 682  1      6.124310 21.340500 44.880100
 683  1      2.872300 51.313100 71.700600
 684  1      48.600900 32.547200 21.055800
 685  1      62.693600 35.926100 45.371600
 686  1      23.991500 68.847900 56.808200
 687  1      21.018200 53.453400 51.409600
 688  1      11.930100 60.097800 59.685200
 689  1      42.621100 17.805100 47.874900
 690  1      36.123000 51.164000 3.331830
 691  1      6.020390 51.107100 57.067300
 692  1      45.214900 20.608800 60.071800
 693  1      14.836300 27.203900 60.253900
 694  1      39.738000 17.443900 3.388400
 695  1      8.792650 35.522300 39.120500
 696  1      51.089800 5.597480 39.296400
 697  1      18.062900 32.877000 27.609300
 698  1      18.403200 27.512800 9.258030
 699  1      45.105100 24.385200 56.951700