# Converted from POSCAR to lammps format

6912 atoms
2 atom types

0.000000  177.552895   xlo xhi
0.000000  133.581390   ylo yhi
0.000000  131.527119   zlo zhi

  0.000000    0.000000    0.000000   xy xz yz

Atoms

   1  1      50.000000 51.865634 55.249055
   2  1      98.470562 76.118858 73.639874
   3  1      96.854870 77.051674 76.267134
   4  1      69.388222 63.059431 71.012615
   5  1      71.003910 62.126611 68.385353
   6  1      104.933292 51.865634 71.012615
   7  1      106.548981 50.932815 68.385353
   8  1      69.388222 63.059431 76.267134
   9  1      71.003910 62.126611 73.639874
  10  1      98.470562 76.118858 68.385353
  11  1      96.854870 77.051674 71.012615
  12  1      69.388222 63.059431 81.521654
  13  1      71.003910 62.126611 78.894394
  14  1      77.466652 78.917309 73.639874
  15  1      75.850958 79.850122 76.267134
  16  1      67.772535 65.857880 55.249055
  17  1      69.388224 64.925060 52.621795
  18  1      98.470562 76.118858 63.130835
  19  1      96.854870 77.051674 65.758095
  20  1      67.772535 65.857880 60.503575
  21  1      69.388224 64.925060 57.876315
  22  1      67.772535 65.857880 65.758095
  23  1      69.388224 64.925060 63.130835
  24  1      98.470562 76.118858 57.876315
  25  1      71.003910 62.126611 63.130835
  26  1      69.388222 63.059431 65.758095
  27  1      75.850958 79.850122 81.521654
  28  1      77.466652 78.917309 78.894394
  29  1      71.003904 60.260982 60.503575
  30  1      72.619593 59.328162 57.876315
  31  1      104.933292 51.865634 65.758095
  32  1      106.548981 50.932815 63.130835
  33  1      71.003904 60.260982 65.758095
  34  1      72.619593 59.328162 63.130835
  35  1      96.854874 78.917309 57.876315
  36  1      95.239185 79.850122 60.503575
  37  1      71.003904 60.260982 71.012615
  38  1      72.619593 59.328162 68.385353
  39  1      75.850966 81.715757 52.621795
  40  1      96.854870 77.051674 60.503575
  41  1      74.235273 82.648575 55.249055
  42  1      72.619593 59.328162 73.639874
  43  1      96.854874 78.917309 52.621795
  44  1      95.239185 79.850122 55.249055
  45  1      71.003904 60.260982 81.521654
  46  1      72.619593 59.328162 78.894394
  47  1      69.388222 63.059431 55.249055
  48  1      71.003910 62.126611 52.621795
  49  1      98.470562 76.118858 78.894394
  50  1      96.854870 77.051674 81.521654
  51  1      69.388222 63.059431 60.503575
  52  1      71.003910 62.126611 57.876315
  53  1      71.003904 60.260982 76.267134
  54  1      67.772535 65.857880 71.012615
  55  1      69.388224 64.925060 68.385353
  56  1      77.466652 78.917309 68.385353
  57  1      67.772539 67.723511 78.894394
  58  1      77.466652 78.917309 57.876315
  59  1      75.850958 79.850122 60.503575
  60  1      64.541165 71.454775 55.249055
  61  1      66.156853 70.521961 52.621795
  62  1      100.086246 73.320410 63.130835
  63  1      98.470554 74.253225 65.758095
  64  1      64.541165 71.454775 60.503575
  65  1      66.156853 70.521961 57.876315
  66  1      104.933292 51.865634 81.521654
  67  1      106.548981 50.932815 78.894394
  68  1      66.156851 68.656326 81.521654
  69  1      64.541165 71.454775 65.758095
  70  1      100.086246 73.320410 57.876315
  71  1      98.470554 74.253225 60.503575
  72  1      64.541165 71.454775 71.012615
  73  1      66.156853 70.521961 68.385353
  74  1      77.466652 78.917309 52.621795
  75  1      75.850958 79.850122 55.249055
  76  1      64.541165 71.454775 76.267134
  77  1      66.156853 70.521961 73.639874
  78  1      100.086246 73.320410 52.621795
  79  1      98.470554 74.253225 55.249055
  80  1      64.541165 71.454775 81.521654
  81  1      66.156853 70.521961 63.130835
  82  1      95.239185 79.850122 65.758095
  83  1      98.470554 74.253225 71.012615
  84  1      67.772539 67.723511 73.639874
  85  1      75.850958 79.850122 71.012615
  86  1      67.772535 65.857880 76.267134
  87  1      69.388224 64.925060 73.639874
  88  1      98.470562 76.118858 52.621795
  89  1      96.854870 77.051674 55.249055
  90  1      67.772535 65.857880 81.521654
  91  1      69.388224 64.925060 78.894394
  92  1      104.933292 51.865634 76.267134
  93  1      106.548981 50.932815 73.639874
  94  1      66.156851 68.656326 55.249055
  95  1      67.772539 67.723511 52.621795
  96  1      100.086246 73.320410 68.385353
  97  1      100.086246 73.320410 78.894394
  98  1      66.156851 68.656326 60.503575
  99  1      67.772539 67.723511 57.876315
 100  1      77.466652 78.917309 63.130835
 101  1      75.850958 79.850122 65.758095
 102  1      66.156851 68.656326 65.758095
 103  1      67.772539 67.723511 63.130835
 104  1      100.086246 73.320410 73.639874
 105  1      98.470554 74.253225 76.267134
 106  1      66.156851 68.656326 71.012615
 107  1      67.772539 67.723511 68.385353
 108  1      66.156851 68.656326 76.267134
 109  1      98.470554 74.253225 81.521654
 110  1      66.156853 70.521961 78.894394
 111  1      96.854874 78.917309 63.130835
 112  1      71.003904 60.260982 55.249055
 113  1      114.627411 51.865634 60.503575
 114  1      54.847054 82.648575 71.012615
 115  1      56.462740 81.715757 68.385353
 116  1      95.239185 51.865634 55.249055
 117  1      54.847054 82.648575 76.267134
 118  1      56.462740 81.715757 73.639874
 119  1      116.243103 50.932815 52.621795
 120  1      114.627411 51.865634 55.249055
 121  1      54.847054 82.648575 81.521654
 122  1      56.462740 81.715757 78.894394
 123  1      82.313705 81.715757 78.894394
 124  1      75.850964 51.865634 55.249055
 125  1      77.466652 50.932815 52.621795
 126  1      95.239193 81.715757 78.894394
 127  1      93.623497 82.648575 81.521654
 128  1      75.850964 51.865634 60.503575
 129  1      77.466652 50.932815 57.876315
 130  1      75.850966 81.715757 78.894394
 131  1      74.235273 82.648575 81.521654
 132  1      75.850964 51.865634 65.758095
 133  1      77.466652 50.932815 63.130835
 134  1      95.239193 81.715757 73.639874
 135  1      93.623497 82.648575 76.267134
 136  1      116.243103 50.932815 57.876315
 137  1      56.462740 81.715757 63.130835
 138  1      54.847054 82.648575 65.758095
 139  1      96.854874 50.932815 52.621795
 140  1      58.078425 78.917309 57.876315
 141  1      95.239185 51.865634 65.758095
 142  1      56.462739 79.850122 65.758095
 143  1      58.078425 78.917309 63.130835
 144  1      116.243103 50.932815 73.639874
 145  1      114.627411 51.865634 76.267134
 146  1      56.462739 79.850122 71.012615
 147  1      58.078425 78.917309 68.385353
 148  1      96.854874 50.932815 57.876315
 149  1      56.462739 79.850122 76.267134
 150  1      58.078425 78.917309 73.639874
 151  1      75.850964 51.865634 71.012615
 152  1      116.243103 50.932815 68.385353
 153  1      56.462739 79.850122 81.521654
 154  1      58.078425 78.917309 78.894394
 155  1      95.239185 51.865634 60.503575
 156  1      83.929386 82.648575 81.521654
 157  1      54.847054 82.648575 55.249055
 158  1      56.462740 81.715757 52.621795
 159  1      116.243103 50.932815 63.130835
 160  1      114.627411 51.865634 65.758095
 161  1      54.847054 82.648575 60.503575
 162  1      56.462740 81.715757 57.876315
 163  1      85.545078 81.715757 78.894394
 164  1      114.627411 51.865634 71.012615
 165  1      77.466652 50.932815 68.385353
 166  1      104.933292 51.865634 55.249055
 167  1      106.548981 50.932815 52.621795
 168  1      104.933292 51.865634 60.503575
 169  1      106.548981 50.932815 57.876315
 170  1      72.619593 57.462532 55.249055
 171  1      74.235281 56.529714 52.621795
 172  1      96.854874 78.917309 78.894394
 173  1      95.239185 79.850122 81.521654
 174  1      72.619593 57.462532 60.503575
 175  1      74.235281 56.529714 57.876315
 176  1      75.850966 81.715757 63.130835
 177  1      74.235273 82.648575 65.758095
 178  1      72.619593 57.462532 65.758095
 179  1      75.850966 53.731264 78.894394
 180  1      74.235281 56.529714 63.130835
 181  1      95.239185 79.850122 76.267134
 182  1      72.619593 57.462532 71.012615
 183  1      74.235281 56.529714 68.385353
 184  1      72.619593 57.462532 76.267134
 185  1      74.235281 56.529714 73.639874
 186  1      96.854874 78.917309 68.385353
 187  1      95.239185 79.850122 71.012615
 188  1      72.619593 57.462532 81.521654
 189  1      74.235281 56.529714 78.894394
 190  1      75.850966 81.715757 57.876315
 191  1      74.235273 82.648575 60.503575
 192  1      96.854874 78.917309 73.639874
 193  1      72.619593 59.328162 52.621795
 194  1      74.235277 54.664082 81.521654
 195  1      95.239193 81.715757 52.621795
 196  1      75.850964 51.865634 76.267134
 197  1      77.466652 50.932815 73.639874
 198  1      95.239193 81.715757 68.385353
 199  1      93.623497 82.648575 71.012615
 200  1      75.850964 51.865634 81.521654
 201  1      77.466652 50.932815 78.894394
 202  1      75.850966 81.715757 73.639874
 203  1      74.235273 82.648575 76.267134
 204  1      74.235277 54.664082 55.249055
 205  1      75.850966 53.731264 52.621795
 206  1      95.239193 81.715757 63.130835
 207  1      93.623497 82.648575 55.249055
 208  1      93.623497 82.648575 65.758095
 209  1      75.850966 53.731264 57.876315
 210  1      74.235277 54.664082 65.758095
 211  1      75.850966 53.731264 63.130835
 212  1      95.239193 81.715757 57.876315
 213  1      93.623497 82.648575 60.503575
 214  1      74.235277 54.664082 71.012615
 215  1      75.850966 53.731264 68.385353
 216  1      75.850966 81.715757 68.385353
 217  1      74.235273 82.648575 71.012615
 218  1      74.235277 54.664082 76.267134
 219  1      75.850966 53.731264 73.639874
 220  1      74.235277 54.664082 60.503575
 221  1      62.925479 74.253225 55.249055
 222  1      64.541168 73.320410 52.621795
 223  1      101.701935 70.521961 78.894394
 224  1      79.082331 74.253225 65.758095
 225  1      75.850964 57.462532 65.758095
 226  1      77.466652 56.529714 63.130835
 227  1      106.548988 62.126611 73.639874
 228  1      104.933292 63.059431 76.267134
 229  1      75.850964 57.462532 71.012615
 230  1      77.466652 56.529714 68.385353
 231  1      75.850964 57.462532 76.267134
 232  1      77.466652 56.529714 73.639874
 233  1      106.548988 62.126611 68.385353
 234  1      104.933292 63.059431 71.012615
 235  1      75.850964 57.462532 81.521654
 236  1      77.466652 56.529714 78.894394
 237  1      80.698025 73.320410 57.876315
 238  1      79.082331 74.253225 60.503575
 239  1      74.235277 60.260982 55.249055
 240  1      75.850966 59.328162 52.621795
 241  1      106.548988 62.126611 63.130835
 242  1      104.933292 63.059431 65.758095
 243  1      74.235277 60.260982 60.503575
 244  1      75.850966 59.328162 57.876315
 245  1      103.317612 54.664082 81.521654
 246  1      104.933300 53.731264 78.894394
 247  1      80.698025 73.320410 63.130835
 248  1      77.466652 56.529714 57.876315
 249  1      75.850964 57.462532 60.503575
 250  1      104.933292 63.059431 81.521654
 251  1      79.082336 53.731264 52.621795
 252  1      104.933304 64.925060 63.130835
 253  1      103.317612 65.857880 65.758095
 254  1      77.466646 54.664082 60.503575
 255  1      79.082336 53.731264 57.876315
 256  1      77.466646 54.664082 65.758095
 257  1      79.082336 53.731264 63.130835
 258  1      104.933304 64.925060 57.876315
 259  1      103.317612 65.857880 60.503575
 260  1      77.466646 54.664082 71.012615
 261  1      79.082336 53.731264 68.385353
 262  1      74.235277 60.260982 65.758095
 263  1      80.698025 73.320410 68.385353
 264  1      77.466646 54.664082 76.267134
 265  1      79.082336 53.731264 73.639874
 266  1      104.933304 64.925060 52.621795
 267  1      103.317612 65.857880 55.249055
 268  1      77.466646 54.664082 81.521654
 269  1      79.082336 53.731264 78.894394
 270  1      103.317612 54.664082 76.267134
 271  1      104.933300 53.731264 73.639874
 272  1      75.850964 57.462532 55.249055
 273  1      77.466652 56.529714 52.621795
 274  1      106.548988 62.126611 78.894394
 275  1      79.082331 74.253225 71.012615
 276  1      75.850966 59.328162 63.130835
 277  1      106.548988 62.126611 57.876315
 278  1      104.933292 63.059431 60.503575
 279  1      108.164677 59.328162 68.385353
 280  1      106.548981 60.260982 71.012615
 281  1      72.619593 63.059431 81.521654
 282  1      74.235281 62.126611 78.894394
 283  1      82.313709 70.521961 73.639874
 284  1      80.698015 71.454775 76.267134
 285  1      71.003904 65.857880 55.249055
 286  1      72.619593 64.925060 52.621795
 287  1      108.164677 59.328162 63.130835
 288  1      106.548981 60.260982 65.758095
 289  1      71.003904 65.857880 60.503575
 290  1      74.235281 62.126611 73.639874
 291  1      72.619593 64.925060 57.876315
 292  1      72.619593 64.925060 63.130835
 293  1      108.164677 59.328162 57.876315
 294  1      106.548981 60.260982 60.503575
 295  1      71.003904 65.857880 71.012615
 296  1      72.619593 64.925060 68.385353
 297  1      82.313709 70.521961 68.385353
 298  1      80.698015 71.454775 71.012615
 299  1      71.003904 65.857880 76.267134
 300  1      72.619593 64.925060 73.639874
 301  1      108.164677 59.328162 52.621795
 302  1      106.548981 60.260982 55.249055
 303  1      71.003904 65.857880 65.758095
 304  1      77.466646 54.664082 55.249055
 305  1      72.619593 63.059431 76.267134
 306  1      101.701927 57.462532 55.249055
 307  1      74.235277 60.260982 71.012615
 308  1      75.850966 59.328162 68.385353
 309  1      80.698025 73.320410 52.621795
 310  1      79.082331 74.253225 55.249055
 311  1      74.235277 60.260982 76.267134
 312  1      75.850966 59.328162 73.639874
 313  1      106.548988 62.126611 52.621795
 314  1      104.933292 63.059431 55.249055
 315  1      74.235277 60.260982 81.521654
 316  1      75.850966 59.328162 78.894394
 317  1      72.619593 63.059431 55.249055
 318  1      103.317616 56.529714 52.621795
 319  1      74.235281 62.126611 52.621795
 320  1      106.548981 60.260982 81.521654
 321  1      72.619593 63.059431 60.503575
 322  1      74.235281 62.126611 57.876315
 323  1      82.313709 70.521961 78.894394
 324  1      80.698015 71.454775 81.521654
 325  1      72.619593 63.059431 65.758095
 326  1      74.235281 62.126611 63.130835
 327  1      108.164677 59.328162 73.639874
 328  1      106.548981 60.260982 76.267134
 329  1      72.619593 63.059431 71.012615
 330  1      74.235281 62.126611 68.385353
 331  1      108.164677 59.328162 78.894394
 332  1      79.082331 74.253225 76.267134
 333  1      80.698025 73.320410 73.639874
 334  1      80.698025 50.932815 78.894394
 335  1      62.925483 76.118858 63.130835
 336  1      101.701935 70.521961 57.876315
 337  1      100.086243 71.454775 60.503575
 338  1      61.309793 77.051674 71.012615
 339  1      62.925483 76.118858 68.385353
 340  1      79.082336 76.118858 68.385353
 341  1      77.466644 77.051674 71.012615
 342  1      61.309793 77.051674 76.267134
 343  1      62.925483 76.118858 73.639874
 344  1      101.701935 70.521961 52.621795
 345  1      100.086243 71.454775 55.249055
 346  1      61.309793 77.051674 65.758095
 347  1      61.309793 77.051674 81.521654
 348  1      103.317612 54.664082 60.503575
 349  1      104.933300 53.731264 57.876315
 350  1      59.694109 79.850122 55.249055
 351  1      61.309796 78.917309 52.621795
 352  1      103.317619 67.723511 78.894394
 353  1      101.701927 68.656326 81.521654
 354  1      59.694109 79.850122 60.503575
 355  1      61.309796 78.917309 57.876315
 356  1      79.082336 76.118858 63.130835
 357  1      77.466644 77.051674 65.758095
 358  1      59.694109 79.850122 65.758095
 359  1      62.925483 76.118858 78.894394
 360  1      61.309796 78.917309 63.130835
 361  1      62.925483 76.118858 57.876315
 362  1      100.086243 71.454775 65.758095
 363  1      100.086243 71.454775 81.521654
 364  1      62.925479 74.253225 60.503575
 365  1      64.541168 73.320410 57.876315
 366  1      79.082336 76.118858 78.894394
 367  1      77.466644 77.051674 81.521654
 368  1      62.925479 74.253225 65.758095
 369  1      64.541168 73.320410 63.130835
 370  1      101.701935 70.521961 73.639874
 371  1      100.086243 71.454775 76.267134
 372  1      62.925479 74.253225 71.012615
 373  1      64.541168 73.320410 68.385353
 374  1      61.309793 77.051674 60.503575
 375  1      103.317612 54.664082 55.249055
 376  1      62.925479 74.253225 76.267134
 377  1      64.541168 73.320410 73.639874
 378  1      101.701935 70.521961 68.385353
 379  1      100.086243 71.454775 71.012615
 380  1      62.925479 74.253225 81.521654
 381  1      64.541168 73.320410 78.894394
 382  1      79.082336 76.118858 73.639874
 383  1      77.466644 77.051674 76.267134
 384  1      61.309793 77.051674 55.249055
 385  1      62.925483 76.118858 52.621795
 386  1      101.701935 70.521961 63.130835
 387  1      104.933300 53.731264 52.621795
 388  1      56.462739 79.850122 60.503575
 389  1      103.317619 67.723511 73.639874
 390  1      59.694109 79.850122 71.012615
 391  1      101.701927 68.656326 55.249055
 392  1      58.078423 82.648575 81.521654
 393  1      59.694112 81.715757 78.894394
 394  1      79.082336 51.865634 55.249055
 395  1      80.698025 50.932815 52.621795
 396  1      104.933304 64.925060 78.894394
 397  1      103.317612 65.857880 81.521654
 398  1      79.082336 51.865634 60.503575
 399  1      80.698025 50.932815 57.876315
 400  1      80.698025 73.320410 78.894394
 401  1      79.082331 74.253225 81.521654
 402  1      103.317619 67.723511 52.621795
 403  1      79.082336 51.865634 65.758095
 404  1      104.933304 64.925060 73.639874
 405  1      103.317612 65.857880 76.267134
 406  1      79.082336 51.865634 71.012615
 407  1      80.698025 50.932815 68.385353
 408  1      103.317612 54.664082 71.012615
 409  1      104.933300 53.731264 68.385353
 410  1      79.082336 51.865634 76.267134
 411  1      80.698025 50.932815 73.639874
 412  1      104.933304 64.925060 68.385353
 413  1      103.317612 65.857880 71.012615
 414  1      79.082336 51.865634 81.521654
 415  1      80.698025 50.932815 63.130835
 416  1      101.701927 68.656326 76.267134
 417  1      59.694112 81.715757 73.639874
 418  1      77.466644 77.051674 55.249055
 419  1      61.309796 78.917309 68.385353
 420  1      59.694109 79.850122 76.267134
 421  1      61.309796 78.917309 73.639874
 422  1      103.317619 67.723511 68.385353
 423  1      101.701927 68.656326 71.012615
 424  1      59.694109 79.850122 81.521654
 425  1      61.309796 78.917309 78.894394
 426  1      79.082336 76.118858 57.876315
 427  1      77.466644 77.051674 60.503575
 428  1      58.078423 82.648575 55.249055
 429  1      59.694112 81.715757 52.621795
 430  1      58.078423 82.648575 76.267134
 431  1      103.317619 67.723511 63.130835
 432  1      58.078423 82.648575 60.503575
 433  1      59.694112 81.715757 57.876315
 434  1      103.317612 54.664082 65.758095
 435  1      104.933300 53.731264 63.130835
 436  1      58.078423 82.648575 65.758095
 437  1      59.694112 81.715757 63.130835
 438  1      103.317619 67.723511 57.876315
 439  1      101.701927 68.656326 60.503575
 440  1      58.078423 82.648575 71.012615
 441  1      59.694112 81.715757 68.385353
 442  1      79.082336 76.118858 52.621795
 443  1      101.701927 68.656326 65.758095
 444  1      114.627411 51.865634 81.521654
 445  1      116.243103 50.932815 78.894394
 446  1      58.078425 78.917309 52.621795
 447  1      92.007820 59.328162 73.639874
 448  1      56.462738 74.253225 76.267134
 449  1      58.078426 73.320410 73.639874
 450  1      104.933304 70.521961 68.385353
 451  1      103.317616 71.454775 71.012615
 452  1      56.462738 74.253225 81.521654
 453  1      58.078426 73.320410 78.894394
 454  1      90.392132 60.260982 76.267134
 455  1      54.847052 77.051674 55.249055
 456  1      56.462741 76.118858 52.621795
 457  1      104.933304 70.521961 63.130835
 458  1      103.317616 71.454775 65.758095
 459  1      54.847052 77.051674 60.503575
 460  1      56.462741 76.118858 57.876315
 461  1      92.007820 59.328162 68.385353
 462  1      54.847052 77.051674 65.758095
 463  1      56.462741 76.118858 63.130835
 464  1      104.933304 70.521961 57.876315
 465  1      103.317616 71.454775 60.503575
 466  1      54.847052 77.051674 71.012615
 467  1      56.462741 76.118858 68.385353
 468  1      90.392132 60.260982 71.012615
 469  1      85.545071 79.850122 60.503575
 470  1      87.160763 78.917309 52.621795
 471  1      58.078426 73.320410 68.385353
 472  1      56.462738 74.253225 71.012615
 473  1      103.317616 71.454775 76.267134
 474  1      59.694111 70.521961 63.130835
 475  1      103.317616 73.320410 57.876315
 476  1      101.701927 74.253225 60.503575
 477  1      58.078424 71.454775 71.012615
 478  1      59.694111 70.521961 68.385353
 479  1      88.776443 63.059431 55.249055
 480  1      58.078424 71.454775 76.267134
 481  1      59.694111 70.521961 73.639874
 482  1      103.317616 73.320410 52.621795
 483  1      101.701927 74.253225 55.249055
 484  1      58.078424 71.454775 81.521654
 485  1      54.847052 77.051674 76.267134
 486  1      59.694111 70.521961 78.894394
 487  1      56.462738 74.253225 55.249055
 488  1      58.078426 73.320410 52.621795
 489  1      104.933304 70.521961 78.894394
 490  1      103.317616 71.454775 81.521654
 491  1      56.462738 74.253225 60.503575
 492  1      58.078426 73.320410 57.876315
 493  1      90.392132 60.260982 81.521654
 494  1      85.545071 79.850122 55.249055
 495  1      56.462738 74.253225 65.758095
 496  1      58.078426 73.320410 63.130835
 497  1      104.933304 70.521961 73.639874
 498  1      92.007820 59.328162 78.894394
 499  1      56.462741 76.118858 73.639874
 500  1      104.933304 70.521961 52.621795
 501  1      103.317616 71.454775 55.249055
 502  1      106.548988 67.723511 63.130835
 503  1      104.933300 68.656326 65.758095
 504  1      51.615681 82.648575 60.503575
 505  1      53.231369 81.715757 57.876315
 506  1      87.160763 78.917309 63.130835
 507  1      92.007820 59.328162 52.621795
 508  1      51.615681 82.648575 65.758095
 509  1      53.231369 81.715757 63.130835
 510  1      106.548988 67.723511 57.876315
 511  1      104.933300 68.656326 60.503575
 512  1      51.615681 82.648575 71.012615
 513  1      53.231369 81.715757 52.621795
 514  1      53.231369 81.715757 68.385353
 515  1      51.615681 82.648575 76.267134
 516  1      53.231369 81.715757 73.639874
 517  1      106.548988 67.723511 52.621795
 518  1      104.933300 68.656326 55.249055
 519  1      51.615681 82.648575 81.521654
 520  1      53.231369 81.715757 78.894394
 521  1      93.623505 56.529714 78.894394
 522  1      72.619593 51.865634 55.249055
 523  1      74.235281 50.932815 52.621795
 524  1      108.164673 64.925060 78.894394
 525  1      106.548981 65.857880 81.521654
 526  1      90.392132 60.260982 55.249055
 527  1      58.078424 71.454775 65.758095
 528  1      51.615681 82.648575 55.249055
 529  1      90.392132 60.260982 60.503575
 530  1      54.847052 77.051674 81.521654
 531  1      56.462741 76.118858 78.894394
 532  1      87.160763 78.917309 57.876315
 533  1      92.007820 59.328162 63.130835
 534  1      53.231367 79.850122 55.249055
 535  1      54.847054 78.917309 52.621795
 536  1      106.548988 67.723511 78.894394
 537  1      104.933300 68.656326 81.521654
 538  1      53.231367 79.850122 60.503575
 539  1      54.847054 78.917309 57.876315
 540  1      90.392132 60.260982 65.758095
 541  1      85.545071 79.850122 65.758095
 542  1      53.231367 79.850122 65.758095
 543  1      106.548988 67.723511 73.639874
 544  1      104.933300 68.656326 76.267134
 545  1      53.231367 79.850122 71.012615
 546  1      54.847054 78.917309 68.385353
 547  1      92.007820 59.328162 57.876315
 548  1      53.231367 79.850122 76.267134
 549  1      54.847054 78.917309 73.639874
 550  1      106.548988 67.723511 68.385353
 551  1      104.933300 68.656326 71.012615
 552  1      53.231367 79.850122 81.521654
 553  1      54.847054 78.917309 78.894394
 554  1      54.847054 78.917309 63.130835
 555  1      90.392132 62.126611 52.621795
 556  1      88.776447 76.118858 78.894394
 557  1      59.694111 70.521961 57.876315
 558  1      64.541164 60.260982 76.267134
 559  1      66.156853 59.328162 73.639874
 560  1      100.086246 78.917309 52.621795
 561  1      98.470558 79.850122 55.249055
 562  1      64.541164 60.260982 81.521654
 563  1      66.156853 59.328162 78.894394
 564  1      90.392132 62.126611 78.894394
 565  1      62.925479 63.059431 55.249055
 566  1      64.541168 62.126611 52.621795
 567  1      101.701931 76.118858 78.894394
 568  1      100.086243 77.051674 81.521654
 569  1      87.160759 65.857880 55.249055
 570  1      62.925479 63.059431 60.503575
 571  1      88.776443 63.059431 81.521654
 572  1      87.160755 77.051674 71.012615
 573  1      62.925479 63.059431 65.758095
 574  1      64.541168 62.126611 63.130835
 575  1      101.701931 76.118858 73.639874
 576  1      100.086243 77.051674 76.267134
 577  1      62.925479 63.059431 71.012615
 578  1      64.541168 62.126611 68.385353
 579  1      88.776447 76.118858 68.385353
 580  1      90.392132 62.126611 73.639874
 581  1      62.925479 63.059431 76.267134
 582  1      64.541168 62.126611 57.876315
 583  1      64.541168 62.126611 73.639874
 584  1      66.156853 59.328162 68.385353
 585  1      98.470558 79.850122 60.503575
 586  1      100.086246 78.917309 73.639874
 587  1      98.470558 79.850122 76.267134
 588  1      66.156851 57.462532 71.012615
 589  1      67.772539 56.529714 68.385353
 590  1      88.776447 64.925060 57.876315
 591  1      66.156851 57.462532 76.267134
 592  1      67.772539 56.529714 73.639874
 593  1      100.086246 78.917309 68.385353
 594  1      98.470558 79.850122 71.012615
 595  1      66.156851 57.462532 81.521654
 596  1      67.772539 56.529714 78.894394
 597  1      64.541164 60.260982 71.012615
 598  1      87.160759 65.857880 60.503575
 599  1      64.541164 60.260982 55.249055
 600  1      66.156853 59.328162 52.621795
 601  1      100.086246 78.917309 63.130835
 602  1      98.470558 79.850122 65.758095
 603  1      64.541164 60.260982 60.503575
 604  1      66.156853 59.328162 57.876315
 605  1      88.776447 76.118858 63.130835
 606  1      88.776447 64.925060 52.621795
 607  1      64.541164 60.260982 65.758095
 608  1      66.156853 59.328162 63.130835
 609  1      100.086246 78.917309 57.876315
 610  1      87.160755 77.051674 65.758095
 611  1      72.619593 51.865634 60.503575
 612  1      74.235279 77.051674 71.012615
 613  1      62.925479 63.059431 81.521654
 614  1      101.701927 74.253225 81.521654
 615  1      59.694108 68.656326 60.503575
 616  1      61.309796 67.723511 57.876315
 617  1      88.776443 63.059431 65.758095
 618  1      59.694108 68.656326 65.758095
 619  1      61.309796 67.723511 63.130835
 620  1      103.317616 73.320410 73.639874
 621  1      101.701927 74.253225 76.267134
 622  1      59.694108 68.656326 71.012615
 623  1      61.309796 67.723511 68.385353
 624  1      90.392132 62.126611 57.876315
 625  1      103.317616 73.320410 78.894394
 626  1      59.694108 68.656326 76.267134
 627  1      103.317616 73.320410 68.385353
 628  1      101.701927 74.253225 71.012615
 629  1      59.694108 68.656326 81.521654
 630  1      61.309796 67.723511 78.894394
 631  1      88.776443 63.059431 60.503575
 632  1      87.160755 77.051674 81.521654
 633  1      58.078424 71.454775 55.249055
 634  1      59.694111 70.521961 52.621795
 635  1      103.317616 73.320410 63.130835
 636  1      101.701927 74.253225 65.758095
 637  1      58.078424 71.454775 60.503575
 638  1      61.309796 67.723511 73.639874
 639  1      100.086243 77.051674 71.012615
 640  1      61.309796 67.723511 52.621795
 641  1      90.392132 62.126611 63.130835
 642  1      64.541168 62.126611 78.894394
 643  1      88.776443 63.059431 76.267134
 644  1      61.309794 65.857880 55.249055
 645  1      62.925483 64.925060 52.621795
 646  1      101.701931 76.118858 63.130835
 647  1      100.086243 77.051674 65.758095
 648  1      61.309794 65.857880 60.503575
 649  1      62.925483 64.925060 57.876315
 650  1      90.392132 62.126611 68.385353
 651  1      61.309794 65.857880 65.758095
 652  1      62.925483 64.925060 63.130835
 653  1      59.694108 68.656326 55.249055
 654  1      101.701931 76.118858 57.876315
 655  1      61.309794 65.857880 71.012615
 656  1      62.925483 64.925060 68.385353
 657  1      88.776443 63.059431 71.012615
 658  1      87.160755 77.051674 76.267134
 659  1      61.309794 65.857880 76.267134
 660  1      62.925483 64.925060 73.639874
 661  1      101.701931 76.118858 52.621795
 662  1      100.086243 77.051674 55.249055
 663  1      61.309794 65.857880 81.521654
 664  1      62.925483 64.925060 78.894394
 665  1      88.776447 76.118858 73.639874
 666  1      100.086243 77.051674 60.503575
 667  1      71.003904 65.857880 81.521654
 668  1      74.235281 50.932815 57.876315
 669  1      85.545071 79.850122 71.012615
 670  1      64.541168 67.723511 68.385353
 671  1      95.239185 53.731264 57.876315
 672  1      62.925481 68.656326 76.267134
 673  1      64.541168 67.723511 73.639874
 674  1      113.011730 56.529714 68.385353
 675  1      111.396042 57.462532 71.012615
 676  1      62.925481 68.656326 81.521654
 677  1      64.541168 67.723511 78.894394
 678  1      93.623497 54.664082 60.503575
 679  1      83.929386 82.648575 65.758095
 680  1      61.309796 71.454775 55.249055
 681  1      62.925482 70.521961 52.621795
 682  1      113.011730 56.529714 63.130835
 683  1      111.396042 57.462532 65.758095
 684  1      61.309796 71.454775 60.503575
 685  1      62.925482 70.521961 57.876315
 686  1      85.545078 81.715757 63.130835
 687  1      95.239185 53.731264 52.621795
 688  1      61.309796 71.454775 65.758095