# Converted from POSCAR to lammps format

10240 atoms
2 atom types

0.000000   51.701932   xlo xhi
0.000000   44.775189   ylo yhi
0.000000   52.545198   zlo zhi

-25.850966    0.000000    0.000000   xy xz yz

Atoms

   1  1      -0.000002 1.865634 5.249055
   2  1      4.847054 27.051678 47.285214
   3  1      6.462743 26.118859 39.403434
   4  1      4.847054 27.051678 42.030694
   5  1      21.003908 32.648576 10.503575
   6  1      22.619597 31.715758 7.876315
   7  1      6.462743 26.118859 34.148914
   8  1      4.847054 27.051678 36.776174
   9  1      6.462743 26.118859 28.894394
  10  1      6.462743 26.118859 44.657954
  11  1      4.847054 27.051678 31.521654
  12  1      22.619597 31.715758 13.130835
  13  1      6.462743 26.118859 23.639875
  14  1      4.847054 27.051678 26.267134
  15  1      6.462743 26.118859 18.385355
  16  1      4.847054 27.051678 21.012615
  17  1      21.003908 32.648576 21.012615
  18  1      22.619597 31.715758 18.385355
  19  1      6.462743 26.118859 13.130835
  20  1      21.003908 32.648576 15.758095
  21  1      22.619597 31.715758 2.621795
  22  1      21.003908 32.648576 5.249055
  23  1      4.847054 27.051678 52.539734
  24  1      4.847058 28.917309 28.894394
  25  1      3.231369 29.850127 31.521654
  26  1      22.619594 29.850127 42.030694
  27  1      24.235282 28.917309 39.403434
  28  1      4.847058 28.917309 23.639875
  29  1      3.231369 29.850127 26.267134
  30  1      4.847058 28.917309 18.385355
  31  1      3.231369 29.850127 21.012615
  32  1      22.619594 29.850127 47.285214
  33  1      24.235282 28.917309 44.657954
  34  1      4.847058 28.917309 13.130835
  35  1      3.231369 29.850127 15.758095
  36  1      4.847058 28.917309 7.876315
  37  1      3.231369 29.850127 10.503575
  38  1      22.619594 29.850127 52.539734
  39  1      24.235282 28.917309 49.912474
  40  1      4.847058 28.917309 2.621795
  41  1      3.231369 29.850127 5.249055
  42  1      6.462743 26.118859 49.912474
  43  1      4.847054 27.051678 15.758095
  44  1      6.462743 26.118859 7.876315
  45  1      4.847054 27.051678 10.503575
  46  1      21.003908 32.648576 26.267134
  47  1      21.003908 32.648576 47.285214
  48  1      22.619597 31.715758 44.657954
  49  1      8.078428 23.320410 13.130835
  50  1      6.462740 24.253228 15.758095
  51  1      8.078428 23.320410 7.876315
  52  1      6.462740 24.253228 10.503575
  53  1      21.003908 32.648576 52.539734
  54  1      22.619597 31.715758 49.912474
  55  1      8.078428 23.320410 2.621795
  56  1      6.462740 24.253228 5.249055
  57  1      9.694114 20.521961 49.912474
  58  1      8.078425 21.454779 52.539734
  59  1      19.388223 35.447025 5.249055
  60  1      21.003911 34.514207 2.621795
  61  1      9.694114 20.521961 44.657954
  62  1      8.078425 21.454779 47.285214
  63  1      9.694114 20.521961 39.403434
  64  1      8.078425 21.454779 42.030694
  65  1      19.388223 35.447025 10.503575
  66  1      6.462740 24.253228 21.012615
  67  1      3.231369 29.850127 36.776174
  68  1      8.078428 23.320410 18.385355
  69  1      8.078428 23.320410 23.639875
  70  1      22.619597 31.715758 23.639875
  71  1      6.462743 26.118859 2.621795
  72  1      4.847054 27.051678 5.249055
  73  1      8.078428 23.320410 49.912474
  74  1      6.462740 24.253228 52.539734
  75  1      21.003908 32.648576 31.521654
  76  1      22.619597 31.715758 28.894394
  77  1      8.078428 23.320410 44.657954
  78  1      6.462740 24.253228 47.285214
  79  1      8.078428 23.320410 39.403434
  80  1      6.462740 24.253228 42.030694
  81  1      21.003908 32.648576 36.776174
  82  1      22.619597 31.715758 34.148914
  83  1      8.078428 23.320410 34.148914
  84  1      6.462740 24.253228 36.776174
  85  1      8.078428 23.320410 28.894394
  86  1      6.462740 24.253228 31.521654
  87  1      21.003908 32.648576 42.030694
  88  1      22.619597 31.715758 39.403434
  89  1      6.462740 24.253228 26.267134
  90  1      21.003911 34.514207 7.876315
  91  1      4.847058 28.917309 34.148914
  92  1      22.619594 29.850127 36.776174
  93  1      1.615687 34.514207 44.657954
  94  1      -0.000002 35.447025 47.285214
  95  1      1.615687 34.514207 39.403434
  96  1      -0.000002 35.447025 42.030694
  97  1      24.235279 27.051678 36.776174
  98  1      25.850968 26.118859 34.148914
  99  1      1.615687 34.514207 34.148914
 100  1      -0.000002 35.447025 36.776174
 101  1      25.850968 26.118859 28.894394
 102  1      1.615687 34.514207 28.894394
 103  1      24.235279 27.051678 42.030694
 104  1      25.850968 26.118859 39.403434
 105  1      1.615687 34.514207 23.639875
 106  1      -0.000002 35.447025 26.267134
 107  1      1.615687 34.514207 18.385355
 108  1      -0.000002 35.447025 21.012615
 109  1      24.235279 27.051678 47.285214
 110  1      25.850968 26.118859 44.657954
 111  1      -0.000002 35.447025 31.521654
 112  1      24.235279 27.051678 31.521654
 113  1      -0.000002 35.447025 52.539734
 114  1      1.615687 34.514207 49.912474
 115  1      -1.615687 38.245475 36.776174
 116  1      0.000002 37.312656 28.894394
 117  1      -1.615687 38.245475 31.521654
 118  1      24.235279 27.051678 15.758095
 119  1      25.850968 26.118859 13.130835
 120  1      0.000002 37.312656 23.639875
 121  1      -1.615687 38.245475 26.267134
 122  1      0.000002 37.312656 18.385355
 123  1      -1.615687 38.245475 21.012615
 124  1      24.235279 27.051678 21.012615
 125  1      25.850968 26.118859 18.385355
 126  1      0.000002 37.312656 13.130835
 127  1      -1.615687 38.245475 15.758095
 128  1      0.000002 37.312656 7.876315
 129  1      -1.615687 38.245475 10.503575
 130  1      24.235279 27.051678 26.267134
 131  1      25.850968 26.118859 23.639875
 132  1      0.000002 37.312656 2.621795
 133  1      -1.615687 38.245475 5.249055
 134  1      1.615687 34.514207 13.130835
 135  1      -0.000002 35.447025 15.758095
 136  1      1.615687 34.514207 7.876315
 137  1      -0.000002 35.447025 10.503575
 138  1      1.615684 32.648576 21.012615
 139  1      22.619594 29.850127 21.012615
 140  1      24.235282 28.917309 18.385355
 141  1      3.231372 31.715758 13.130835
 142  1      1.615684 32.648576 15.758095
 143  1      3.231372 31.715758 7.876315
 144  1      1.615684 32.648576 10.503575
 145  1      22.619594 29.850127 26.267134
 146  1      24.235282 28.917309 23.639875
 147  1      3.231372 31.715758 2.621795
 148  1      1.615684 32.648576 5.249055
 149  1      4.847058 28.917309 49.912474
 150  1      3.231369 29.850127 52.539734
 151  1      22.619594 29.850127 31.521654
 152  1      24.235282 28.917309 28.894394
 153  1      4.847058 28.917309 44.657954
 154  1      3.231369 29.850127 47.285214
 155  1      4.847058 28.917309 39.403434
 156  1      3.231369 29.850127 42.030694
 157  1      3.231372 31.715758 18.385355
 158  1      24.235282 28.917309 34.148914
 159  1      1.615684 32.648576 26.267134
 160  1      24.235282 28.917309 13.130835
 161  1      24.235279 27.051678 52.539734
 162  1      25.850968 26.118859 49.912474
 163  1      1.615687 34.514207 2.621795
 164  1      -0.000002 35.447025 5.249055
 165  1      3.231372 31.715758 49.912474
 166  1      1.615684 32.648576 52.539734
 167  1      22.619594 29.850127 5.249055
 168  1      24.235282 28.917309 2.621795
 169  1      3.231372 31.715758 44.657954
 170  1      1.615684 32.648576 47.285214
 171  1      3.231372 31.715758 39.403434
 172  1      1.615684 32.648576 42.030694
 173  1      22.619594 29.850127 10.503575
 174  1      24.235282 28.917309 7.876315
 175  1      3.231372 31.715758 34.148914
 176  1      1.615684 32.648576 36.776174
 177  1      3.231372 31.715758 28.894394
 178  1      1.615684 32.648576 31.521654
 179  1      22.619594 29.850127 15.758095
 180  1      3.231372 31.715758 23.639875
 181  1      9.694114 20.521961 34.148914
 182  1      8.078425 21.454779 36.776174
 183  1      9.694114 20.521961 28.894394
 184  1      16.156852 41.043924 10.503575
 185  1      17.772541 40.111106 7.876315
 186  1      16.156855 9.328163 34.148914
 187  1      14.541167 10.260982 36.776174
 188  1      16.156855 9.328163 28.894394
 189  1      14.541167 10.260982 31.521654
 190  1      16.156852 41.043924 15.758095
 191  1      17.772541 40.111106 13.130835
 192  1      14.541167 10.260982 42.030694
 193  1      16.156855 9.328163 23.639875
 194  1      16.156855 9.328163 18.385355
 195  1      14.541167 10.260982 21.012615
 196  1      16.156852 41.043924 21.012615
 197  1      17.772541 40.111106 18.385355
 198  1      16.156855 9.328163 13.130835
 199  1      14.541167 10.260982 15.758095
 200  1      16.156855 9.328163 7.876315
 201  1      14.541167 10.260982 10.503575
 202  1      14.541167 10.260982 26.267134
 203  1      16.156855 9.328163 39.403434
 204  1      14.541167 10.260982 47.285214
 205  1      16.156855 9.328163 44.657954
 206  1      19.388226 37.312656 39.403434
 207  1      14.541170 12.126613 23.639875
 208  1      12.925481 13.059431 26.267134
 209  1      14.541170 12.126613 18.385355
 210  1      12.925481 13.059431 21.012615
 211  1      17.772537 38.245475 47.285214
 212  1      19.388226 37.312656 44.657954
 213  1      14.541170 12.126613 13.130835
 214  1      12.925481 13.059431 15.758095
 215  1      14.541170 12.126613 7.876315
 216  1      12.925481 13.059431 10.503575
 217  1      17.772537 38.245475 52.539734
 218  1      19.388226 37.312656 49.912474
 219  1      14.541170 12.126613 2.621795
 220  1      12.925481 13.059431 5.249055
 221  1      16.156855 9.328163 49.912474
 222  1      14.541167 10.260982 52.539734
 223  1      16.156852 41.043924 5.249055
 224  1      17.772541 40.111106 2.621795
 225  1      16.156852 41.043924 26.267134
 226  1      17.772541 40.111106 23.639875
 227  1      16.156855 9.328163 2.621795
 228  1      14.541167 10.260982 5.249055
 229  1      16.156852 7.462532 15.758095
 230  1      17.772541 6.529714 7.876315
 231  1      16.156852 7.462532 10.503575
 232  1      16.156852 41.043924 52.539734
 233  1      17.772541 40.111106 49.912474
 234  1      17.772541 6.529714 2.621795
 235  1      16.156852 7.462532 5.249055
 236  1      19.388226 3.731265 49.912474
 237  1      17.772537 4.664083 52.539734
 238  1      14.541167 43.842373 5.249055
 239  1      16.156855 42.909555 2.621795
 240  1      19.388226 3.731265 44.657954
 241  1      17.772537 4.664083 47.285214
 242  1      19.388226 3.731265 39.403434
 243  1      17.772537 4.664083 42.030694
 244  1      14.541167 43.842373 10.503575
 245  1      16.156855 42.909555 7.876315
 246  1      19.388226 3.731265 34.148914
 247  1      17.772537 4.664083 36.776174
 248  1      17.772541 6.529714 13.130835
 249  1      17.772537 38.245475 42.030694
 250  1      17.772541 40.111106 44.657954
 251  1      16.156852 7.462532 21.012615
 252  1      17.772541 6.529714 49.912474
 253  1      16.156852 7.462532 52.539734
 254  1      16.156852 41.043924 31.521654
 255  1      17.772541 40.111106 28.894394
 256  1      17.772541 6.529714 44.657954
 257  1      16.156852 7.462532 47.285214
 258  1      17.772541 6.529714 39.403434
 259  1      16.156852 7.462532 42.030694
 260  1      16.156852 41.043924 36.776174
 261  1      17.772541 40.111106 34.148914
 262  1      17.772541 6.529714 34.148914
 263  1      16.156852 7.462532 36.776174
 264  1      17.772541 6.529714 28.894394
 265  1      16.156852 7.462532 31.521654
 266  1      16.156852 41.043924 42.030694
 267  1      17.772541 40.111106 39.403434
 268  1      17.772541 6.529714 23.639875
 269  1      16.156852 7.462532 26.267134
 270  1      17.772541 6.529714 18.385355
 271  1      16.156852 41.043924 47.285214
 272  1      12.925481 13.059431 31.521654
 273  1      14.541170 12.126613 28.894394
 274  1      12.925481 13.059431 36.776174
 275  1      11.309799 17.723511 39.403434
 276  1      9.694111 18.656330 42.030694
 277  1      19.388223 35.447025 36.776174
 278  1      21.003911 34.514207 34.148914
 279  1      11.309799 17.723511 34.148914
 280  1      9.694111 18.656330 36.776174
 281  1      11.309799 17.723511 28.894394
 282  1      9.694111 18.656330 31.521654
 283  1      19.388223 35.447025 42.030694
 284  1      21.003911 34.514207 39.403434
 285  1      11.309799 17.723511 23.639875
 286  1      9.694111 18.656330 26.267134
 287  1      11.309799 17.723511 18.385355
 288  1      9.694111 18.656330 21.012615
 289  1      19.388223 35.447025 47.285214
 290  1      21.003911 34.514207 44.657954
 291  1      11.309799 17.723511 13.130835
 292  1      9.694111 18.656330 15.758095
 293  1      11.309799 17.723511 7.876315
 294  1      9.694111 18.656330 47.285214
 295  1      9.694111 18.656330 10.503575
 296  1      11.309799 17.723511 44.657954
 297  1      19.388223 35.447025 31.521654
 298  1      8.078425 21.454779 31.521654
 299  1      19.388223 35.447025 15.758095
 300  1      21.003911 34.514207 13.130835
 301  1      9.694114 20.521961 23.639875
 302  1      8.078425 21.454779 26.267134
 303  1      9.694114 20.521961 18.385355
 304  1      8.078425 21.454779 21.012615
 305  1      19.388223 35.447025 21.012615
 306  1      21.003911 34.514207 18.385355
 307  1      9.694114 20.521961 13.130835
 308  1      8.078425 21.454779 15.758095
 309  1      9.694114 20.521961 7.876315
 310  1      8.078425 21.454779 10.503575
 311  1      19.388223 35.447025 26.267134
 312  1      21.003911 34.514207 23.639875
 313  1      9.694114 20.521961 2.621795
 314  1      8.078425 21.454779 5.249055
 315  1      11.309799 17.723511 49.912474
 316  1      9.694111 18.656330 52.539734
 317  1      21.003911 34.514207 28.894394
 318  1      0.000002 37.312656 34.148914
 319  1      19.388223 35.447025 52.539734
 320  1      11.309799 17.723511 2.621795
 321  1      12.925485 14.925062 13.130835
 322  1      11.309796 15.857880 15.758095
 323  1      12.925485 14.925062 7.876315
 324  1      11.309796 15.857880 10.503575
 325  1      17.772537 38.245475 26.267134
 326  1      19.388226 37.312656 23.639875
 327  1      12.925485 14.925062 2.621795
 328  1      11.309796 15.857880 5.249055
 329  1      14.541170 12.126613 49.912474
 330  1      12.925481 13.059431 52.539734
 331  1      17.772537 38.245475 31.521654
 332  1      19.388226 37.312656 28.894394
 333  1      14.541170 12.126613 44.657954
 334  1      12.925481 13.059431 47.285214
 335  1      14.541170 12.126613 39.403434
 336  1      12.925481 13.059431 42.030694
 337  1      17.772537 38.245475 36.776174
 338  1      19.388226 37.312656 34.148914
 339  1      14.541170 12.126613 34.148914
 340  1      19.388226 37.312656 18.385355
 341  1      21.003911 34.514207 49.912474
 342  1      17.772537 38.245475 21.012615
 343  1      12.925485 14.925062 18.385355
 344  1      9.694111 18.656330 5.249055
 345  1      12.925485 14.925062 49.912474
 346  1      11.309796 15.857880 52.539734
 347  1      17.772537 38.245475 5.249055
 348  1      19.388226 37.312656 2.621795
 349  1      12.925485 14.925062 44.657954
 350  1      11.309796 15.857880 47.285214
 351  1      12.925485 14.925062 39.403434
 352  1      11.309796 15.857880 42.030694
 353  1      17.772537 38.245475 10.503575
 354  1      19.388226 37.312656 7.876315
 355  1      12.925485 14.925062 34.148914
 356  1      11.309796 15.857880 36.776174
 357  1      12.925485 14.925062 28.894394
 358  1      11.309796 15.857880 31.521654
 359  1      17.772537 38.245475 15.758095
 360  1      19.388226 37.312656 13.130835
 361  1      12.925485 14.925062 23.639875
 362  1      11.309796 15.857880 26.267134
 363  1      11.309796 15.857880 21.012615
 364  1      25.850968 26.118859 7.876315
 365  1      24.235279 27.051678 10.503575
 366  1      -1.615687 38.245475 42.030694
 367  1      16.156855 14.925062 49.912474
 368  1      14.541167 15.857880 52.539734
 369  1      30.698020 15.857880 5.249055
 370  1      32.313709 14.925062 2.621795
 371  1      16.156855 14.925062 44.657954
 372  1      14.541167 15.857880 47.285214
 373  1      16.156855 14.925062 39.403434
 374  1      14.541167 15.857880 42.030694
 375  1      12.925481 18.656330 5.249055
 376  1      30.698020 15.857880 10.503575
 377  1      16.156855 14.925062 34.148914
 378  1      14.541167 15.857880 36.776174
 379  1      16.156855 14.925062 28.894394
 380  1      14.541167 15.857880 31.521654
 381  1      30.698020 15.857880 15.758095
 382  1      32.313709 14.925062 13.130835
 383  1      16.156855 14.925062 23.639875
 384  1      14.541167 15.857880 26.267134
 385  1      32.313709 14.925062 7.876315
 386  1      14.541170 17.723511 2.621795
 387  1      33.929394 12.126613 49.912474
 388  1      32.313706 13.059431 52.539734
 389  1      12.925481 18.656330 42.030694
 390  1      32.313706 13.059431 36.776174
 391  1      33.929394 12.126613 34.148914
 392  1      14.541170 17.723511 34.148914
 393  1      12.925481 18.656330 36.776174
 394  1      14.541170 17.723511 28.894394
 395  1      12.925481 18.656330 31.521654
 396  1      32.313706 13.059431 42.030694
 397  1      33.929394 12.126613 39.403434
 398  1      14.541170 17.723511 23.639875
 399  1      12.925481 18.656330 26.267134
 400  1      14.541170 17.723511 18.385355
 401  1      12.925481 18.656330 21.012615
 402  1      32.313706 13.059431 47.285214
 403  1      33.929394 12.126613 44.657954
 404  1      14.541170 17.723511 13.130835
 405  1      12.925481 18.656330 15.758095
 406  1      14.541170 17.723511 7.876315
 407  1      12.925481 18.656330 10.503575
 408  1      16.156855 14.925062 18.385355
 409  1      14.541167 15.857880 21.012615
 410  1      30.698020 15.857880 21.012615
 411  1      32.313709 14.925062 18.385355
 412  1      32.313709 14.925062 39.403434
 413  1      17.772541 12.126613 23.639875
 414  1      16.156852 13.059431 26.267134
 415  1      17.772541 12.126613 18.385355
 416  1      16.156852 13.059431 21.012615
 417  1      30.698020 15.857880 47.285214
 418  1      32.313709 14.925062 44.657954
 419  1      17.772541 12.126613 13.130835
 420  1      16.156852 13.059431 15.758095
 421  1      17.772541 12.126613 7.876315
 422  1      16.156852 13.059431 10.503575
 423  1      30.698020 15.857880 52.539734
 424  1      32.313709 14.925062 49.912474
 425  1      17.772541 12.126613 2.621795
 426  1      16.156852 13.059431 5.249055
 427  1      19.388226 9.328163 49.912474
 428  1      17.772537 10.260982 52.539734
 429  1      29.082335 18.656330 5.249055
 430  1      30.698024 17.723511 2.621795
 431  1      30.698020 15.857880 42.030694
 432  1      14.541170 17.723511 39.403434
 433  1      16.156852 13.059431 31.521654
 434  1      16.156852 13.059431 36.776174
 435  1      16.156855 14.925062 13.130835
 436  1      14.541167 15.857880 15.758095
 437  1      16.156855 14.925062 7.876315
 438  1      14.541167 15.857880 10.503575
 439  1      30.698020 15.857880 26.267134
 440  1      32.313709 14.925062 23.639875
 441  1      16.156855 14.925062 2.621795
 442  1      14.541167 15.857880 5.249055
 443  1      17.772541 12.126613 49.912474
 444  1      16.156852 13.059431 52.539734
 445  1      30.698020 15.857880 31.521654
 446  1      32.313709 14.925062 28.894394
 447  1      17.772541 12.126613 44.657954
 448  1      16.156852 13.059431 47.285214
 449  1      17.772541 12.126613 39.403434
 450  1      16.156852 13.059431 42.030694
 451  1      30.698020 15.857880 36.776174
 452  1      32.313709 14.925062 34.148914
 453  1      17.772541 12.126613 34.148914
 454  1      17.772541 12.126613 28.894394
 455  1      12.925481 18.656330 47.285214
 456  1      14.541170 17.723511 44.657954
 457  1      33.929394 12.126613 28.894394
 458  1      9.694114 26.118859 2.621795
 459  1      8.078425 27.051678 5.249055
 460  1      11.309799 23.320410 49.912474
 461  1      9.694111 24.253228 52.539734
 462  1      33.929391 10.260982 31.521654
 463  1      35.545080 9.328163 28.894394
 464  1      11.309799 23.320410 44.657954
 465  1      9.694111 24.253228 47.285214
 466  1      11.309799 23.320410 39.403434
 467  1      9.694111 24.253228 42.030694
 468  1      33.929391 10.260982 36.776174
 469  1      35.545080 9.328163 34.148914
 470  1      11.309799 23.320410 34.148914
 471  1      9.694111 24.253228 36.776174
 472  1      11.309799 23.320410 28.894394
 473  1      9.694111 24.253228 31.521654
 474  1      33.929391 10.260982 42.030694
 475  1      35.545080 9.328163 39.403434
 476  1      11.309799 23.320410 23.639875
 477  1      35.545080 9.328163 23.639875
 478  1      9.694111 24.253228 26.267134
 479  1      33.929391 10.260982 26.267134
 480  1      9.694114 26.118859 7.876315
 481  1      8.078425 27.051678 47.285214
 482  1      9.694114 26.118859 39.403434
 483  1      8.078425 27.051678 42.030694
 484  1      33.929391 10.260982 10.503575
 485  1      35.545080 9.328163 7.876315
 486  1      9.694114 26.118859 34.148914
 487  1      8.078425 27.051678 36.776174
 488  1      9.694114 26.118859 28.894394
 489  1      8.078425 27.051678 31.521654
 490  1      33.929391 10.260982 15.758095
 491  1      35.545080 9.328163 13.130835
 492  1      9.694114 26.118859 23.639875
 493  1      8.078425 27.051678 26.267134
 494  1      9.694114 26.118859 18.385355
 495  1      8.078425 27.051678 21.012615
 496  1      33.929391 10.260982 21.012615
 497  1      35.545080 9.328163 18.385355
 498  1      9.694114 26.118859 13.130835
 499  1      8.078425 27.051678 15.758095
 500  1      8.078425 27.051678 10.503575
 501  1      19.388226 9.328163 44.657954
 502  1      11.309799 23.320410 18.385355
 503  1      33.929391 10.260982 47.285214
 504  1      32.313706 13.059431 15.758095
 505  1      33.929394 12.126613 13.130835
 506  1      12.925485 20.521961 23.639875
 507  1      11.309796 21.454779 26.267134
 508  1      12.925485 20.521961 18.385355
 509  1      11.309796 21.454779 21.012615
 510  1      32.313706 13.059431 21.012615
 511  1      33.929394 12.126613 18.385355
 512  1      12.925485 20.521961 13.130835
 513  1      11.309796 21.454779 15.758095
 514  1      12.925485 20.521961 7.876315
 515  1      11.309796 21.454779 10.503575
 516  1      32.313706 13.059431 26.267134
 517  1      33.929394 12.126613 23.639875
 518  1      12.925485 20.521961 2.621795
 519  1      11.309796 21.454779 5.249055
 520  1      14.541170 17.723511 49.912474
 521  1      12.925481 18.656330 52.539734
 522  1      32.313706 13.059431 31.521654
 523  1      11.309796 21.454779 31.521654
 524  1      9.694111 24.253228 21.012615
 525  1      12.925485 20.521961 28.894394
 526  1      12.925485 20.521961 34.148914
 527  1      35.545080 9.328163 44.657954
 528  1      11.309799 23.320410 13.130835
 529  1      9.694111 24.253228 15.758095
 530  1      11.309799 23.320410 7.876315
 531  1      9.694111 24.253228 10.503575
 532  1      33.929391 10.260982 52.539734
 533  1      35.545080 9.328163 49.912474
 534  1      11.309799 23.320410 2.621795
 535  1      9.694111 24.253228 5.249055
 536  1      12.925485 20.521961 49.912474
 537  1      11.309796 21.454779 52.539734
 538  1      32.313706 13.059431 5.249055
 539  1      33.929394 12.126613 2.621795
 540  1      12.925485 20.521961 44.657954
 541  1      11.309796 21.454779 47.285214
 542  1      12.925485 20.521961 39.403434
 543  1      11.309796 21.454779 42.030694
 544  1      32.313706 13.059431 10.503575
 545  1      33.929394 12.126613 7.876315
 546  1      11.309796 21.454779 36.776174
 547  1      19.388226 3.731265 28.894394
 548  1      17.772537 10.260982 47.285214
 549  1      17.772537 10.260982 42.030694
 550  1      27.466653 23.320410 2.621795
 551  1      -3.231369 42.909555 44.657954
 552  1      -4.847058 43.842373 47.285214
 553  1      -3.231369 42.909555 39.403434
 554  1      -4.847058 43.842373 42.030694
 555  1      25.850964 24.253228 10.503575
 556  1      27.466653 23.320410 7.876315
 557  1      -3.231369 42.909555 34.148914
 558  1      25.850964 24.253228 5.249055
 559  1      -4.847058 43.842373 36.776174
 560  1      -4.847058 43.842373 31.521654
 561  1      25.850964 24.253228 15.758095
 562  1      27.466653 23.320410 13.130835
 563  1      -3.231369 42.909555 23.639875
 564  1      -4.847058 43.842373 26.267134
 565  1      -3.231369 42.909555 18.385355
 566  1      -4.847058 43.842373 21.012615
 567  1      25.850964 24.253228 21.012615
 568  1      -3.231369 42.909555 28.894394
 569  1      -4.847058 43.842373 52.539734
 570  1      -3.231369 42.909555 49.912474
 571  1      22.619594 1.865634 5.249055
 572  1      24.235282 0.932816 34.148914
 573  1      22.619594 1.865634 36.776174
 574  1      24.235282 0.932816 28.894394
 575  1      22.619594 1.865634 31.521654
 576  1      27.466650 21.454779 42.030694
 577  1      29.082338 20.521961 39.403434
 578  1      24.235282 0.932816 23.639875
 579  1      22.619594 1.865634 26.267134
 580  1      24.235282 0.932816 18.385355
 581  1      22.619594 1.865634 21.012615
 582  1      27.466650 21.454779 47.285214
 583  1      29.082338 20.521961 44.657954
 584  1      24.235282 0.932816 13.130835
 585  1      22.619594 1.865634 15.758095
 586  1      24.235282 0.932816 7.876315
 587  1      22.619594 1.865634 10.503575
 588  1      27.466650 21.454779 52.539734
 589  1      29.082338 20.521961 49.912474
 590  1      24.235282 0.932816 2.621795
 591  1      27.466653 23.320410 18.385355
 592  1      -3.231369 42.909555 13.130835
 593  1      -4.847058 43.842373 15.758095
 594  1      -3.231369 42.909555 7.876315
 595  1      -1.615684 40.111106 18.385355
 596  1      -3.231372 41.043924 21.012615
 597  1      25.850964 24.253228 47.285214
 598  1      27.466653 23.320410 44.657954
 599  1      -1.615684 40.111106 13.130835
 600  1      -3.231372 41.043924 15.758095
 601  1      -1.615684 40.111106 7.876315
 602  1      -3.231372 41.043924 10.503575
 603  1      25.850964 24.253228 52.539734
 604  1      27.466653 23.320410 49.912474
 605  1      -1.615684 40.111106 2.621795
 606  1      -3.231372 41.043924 5.249055
 607  1      0.000002 37.312656 49.912474
 608  1      -1.615687 38.245475 52.539734
 609  1      24.235279 27.051678 5.249055
 610  1      25.850968 26.118859 2.621795
 611  1      0.000002 37.312656 44.657954
 612  1      -1.615687 38.245475 47.285214
 613  1      0.000002 37.312656 39.403434
 614  1      -3.231372 41.043924 26.267134
 615  1      29.082338 20.521961 34.148914
 616  1      -1.615684 40.111106 23.639875
 617  1      25.850964 24.253228 42.030694
 618  1      -4.847058 43.842373 10.503575
 619  1      25.850964 24.253228 26.267134
 620  1      27.466653 23.320410 23.639875
 621  1      -3.231369 42.909555 2.621795
 622  1      -4.847058 43.842373 5.249055
 623  1      -1.615684 40.111106 49.912474
 624  1      -3.231372 41.043924 52.539734
 625  1      25.850964 24.253228 31.521654
 626  1      27.466653 23.320410 28.894394
 627  1      -1.615684 40.111106 44.657954
 628  1      -3.231372 41.043924 47.285214
 629  1      -1.615684 40.111106 39.403434
 630  1      -3.231372 41.043924 42.030694
 631  1      25.850964 24.253228 36.776174
 632  1      27.466653 23.320410 34.148914
 633  1      -1.615684 40.111106 34.148914
 634  1      -3.231372 41.043924 36.776174
 635  1      -1.615684 40.111106 28.894394
 636  1      -3.231372 41.043924 31.521654
 637  1      27.466653 23.320410 39.403434
 638  1      27.466650 21.454779 36.776174
 639  1      22.619594 1.865634 42.030694
 640  1      24.235282 0.932816 39.403434
 641  1      19.388223 7.462532 52.539734
 642  1      29.082335 18.656330 31.521654
 643  1      30.698024 17.723511 28.894394
 644  1      21.003911 6.529714 44.657954
 645  1      19.388223 7.462532 47.285214
 646  1      21.003911 6.529714 39.403434
 647  1      19.388223 7.462532 42.030694
 648  1      29.082335 18.656330 36.776174
 649  1      30.698024 17.723511 34.148914
 650  1      21.003911 6.529714 34.148914
 651  1      19.388223 7.462532 36.776174
 652  1      21.003911 6.529714 28.894394
 653  1      19.388223 7.462532 31.521654
 654  1      29.082335 18.656330 42.030694
 655  1      30.698024 17.723511 39.403434
 656  1      21.003911 6.529714 23.639875
 657  1      19.388223 7.462532 26.267134
 658  1      21.003911 6.529714 18.385355
 659  1      19.388223 7.462532 21.012615
 660  1      21.003911 6.529714 49.912474
 661  1      29.082335 18.656330 47.285214
 662  1      17.772537 10.260982 5.249055
 663  1      30.698024 17.723511 23.639875
 664  1      29.082335 18.656330 10.503575
 665  1      30.698024 17.723511 7.876315
 666  1      19.388226 9.328163 34.148914
 667  1      17.772537 10.260982 36.776174
 668  1      19.388226 9.328163 28.894394
 669  1      17.772537 10.260982 31.521654
 670  1      29.082335 18.656330 15.758095
 671  1      30.698024 17.723511 13.130835
 672  1      19.388226 9.328163 23.639875
 673  1      17.772537 10.260982 26.267134
 674  1      19.388226 9.328163 18.385355
 675  1      17.772537 10.260982 21.012615
 676  1      29.082335 18.656330 21.012615
 677  1      30.698024 17.723511 18.385355
 678  1      19.388226 9.328163 13.130835
 679  1      17.772537 10.260982 15.758095
 680  1      19.388226 9.328163 7.876315
 681  1      17.772537 10.260982 10.503575
 682  1      29.082335 18.656330 26.267134
 683  1      19.388226 9.328163 2.621795
 684  1      19.388226 9.328163 39.403434
 685  1      30.698024 17.723511 44.657954
 686  1      19.388223 7.462532 15.758095
 687  1      21.003908 4.664083 26.267134
 688  1      22.619597 3.731265 18.385355
 689  1      21.003908 4.664083 21.012615
 690  1      27.466650 21.454779 21.012615
 691  1      29.082338 20.521961 18.385355
 692  1      22.619597 3.731265 13.130835
 693  1      21.003908 4.664083 15.758095
 694  1      22.619597 3.731265 7.876315
 695  1      21.003908 4.664083 10.503575
 696  1      27.466650 21.454779 26.267134
 697  1      29.082338 20.521961 23.639875
 698  1      22.619597 3.731265 2.621795
 699  1      21.003908 4.664083 5.249055
 700  1      24.235282 0.932816 49.912474
 701  1      22.619594 1.865634 52.539734