# Converted from POSCAR to lammps format

18000 atoms
3 atom types

0.000000   84.678522   xlo xhi
0.000000   73.333751   ylo yhi
0.000000   84.105342   zlo zhi

 42.339261    0.000000    0.000000   xy xz yz

Atoms

   1  1      2.116963 1.222229 1.700143
   2  1      57.158002 15.888979 18.521211
   3  1      59.274966 17.111209 31.941994
   4  1      74.093707 1.222229 68.984417
   5  1      76.210670 2.444458 82.405200
   6  1      38.105335 24.444584 48.763063
   7  1      35.988372 23.222355 35.342280
   8  1      38.105335 24.444584 31.941994
   9  1      35.988372 23.222355 18.521211
  10  1      76.210670 4.888917 1.700143
  11  1      78.327633 6.111146 15.120926
  12  1      38.105335 24.444584 15.120926
  13  1      35.988372 23.222355 1.700143
  14  1      57.158002 15.888979 35.342280
  15  1      59.274966 17.111209 48.763063
  16  1      35.988372 20.777896 82.405200
  17  1      33.871409 19.555667 68.984417
  18  1      76.210670 4.888917 18.521211
  19  1      88.912448 56.222543 35.342280
  20  1      35.988372 23.222355 52.163348
  21  1      38.105335 24.444584 65.584131
  22  1      91.029411 57.444772 48.763063
  23  1      38.105335 26.889042 52.163348
  24  1      88.912448 56.222543 52.163348
  25  1      74.093707 1.222229 18.521211
  26  1      76.210670 2.444458 31.941994
  27  1      40.222298 28.111271 48.763063
  28  1      38.105335 26.889042 35.342280
  29  1      57.158002 15.888979 1.700143
  30  1      40.222298 28.111271 31.941994
  31  1      78.327633 6.111146 31.941994
  32  1      38.105335 26.889042 18.521211
  33  1      76.210670 2.444458 48.763063
  34  1      59.274966 17.111209 15.120926
  35  1      40.222298 28.111271 15.120926
  36  1      38.105335 26.889042 1.700143
  37  1      74.093707 1.222229 52.163348
  38  1      38.105335 24.444584 82.405200
  39  1      35.988372 23.222355 68.984417
  40  1      76.210670 2.444458 65.584131
  41  1      74.093707 1.222229 35.342280
  42  1      40.222298 28.111271 65.584131
  43  1      35.988372 20.777896 65.584131
  44  1      91.029411 57.444772 31.941994
  45  1      31.754446 15.888979 35.342280
  46  1      78.327633 8.555604 1.700143
  47  1      80.444596 9.777834 15.120926
  48  1      33.871409 17.111209 31.941994
  49  1      31.754446 15.888979 18.521211
  50  1      91.029411 57.444772 15.120926
  51  1      88.912448 56.222543 1.700143
  52  1      33.871409 17.111209 15.120926
  53  1      31.754446 15.888979 1.700143
  54  1      59.274966 19.555667 1.700143
  55  1      78.327633 8.555604 18.521211
  56  1      80.444596 9.777834 31.941994
  57  1      31.754446 13.444521 82.405200
  58  1      29.637483 12.222292 68.984417
  59  1      61.391929 20.777896 15.120926
  60  1      31.754446 13.444521 65.584131
  61  1      29.637483 12.222292 52.163348
  62  1      33.871409 17.111209 48.763063
  63  1      59.274966 17.111209 82.405200
  64  1      57.158002 15.888979 68.984417
  65  1      31.754446 15.888979 52.163348
  66  1      88.912448 56.222543 18.521211
  67  1      35.988372 20.777896 48.763063
  68  1      33.871409 19.555667 35.342280
  69  1      76.210670 4.888917 35.342280
  70  1      78.327633 6.111146 48.763063
  71  1      35.988372 20.777896 31.941994
  72  1      33.871409 19.555667 18.521211
  73  1      57.158002 15.888979 52.163348
  74  1      33.871409 19.555667 52.163348
  75  1      59.274966 17.111209 65.584131
  76  1      35.988372 20.777896 15.120926
  77  1      33.871409 19.555667 1.700143
  78  1      78.327633 6.111146 65.584131
  79  1      33.871409 17.111209 82.405200
  80  1      31.754446 15.888979 68.984417
  81  1      76.210670 4.888917 68.984417
  82  1      78.327633 6.111146 82.405200
  83  1      33.871409 17.111209 65.584131
  84  1      76.210670 4.888917 52.163348
  85  1      78.327633 8.555604 35.342280
  86  1      57.158002 13.444521 82.405200
  87  1      38.105335 26.889042 68.984417
  88  1      107.965116 67.222605 35.342280
  89  1      110.082079 68.444835 48.763063
  90  1      46.573187 39.111334 65.584131
  91  1      44.456224 37.889105 52.163348
  92  1      55.041039 12.222292 1.700143
  93  1      107.965116 67.222605 52.163348
  94  1      46.573187 39.111334 48.763063
  95  1      44.456224 37.889105 35.342280
  96  1      110.082079 68.444835 65.584131
  97  1      57.158002 13.444521 15.120926
  98  1      46.573187 39.111334 31.941994
  99  1      44.456224 37.889105 18.521211
 100  1      93.146374 61.111459 15.120926
 101  1      107.965116 67.222605 68.984417
 102  1      110.082079 68.444835 82.405200
 103  1      46.573187 39.111334 15.120926
 104  1      44.456224 37.889105 1.700143
 105  1      44.456224 37.889105 68.984417
 106  1      46.573187 39.111334 82.405200
 107  1      55.041039 9.777834 82.405200
 108  1      52.924076 8.555604 68.984417
 109  1      48.690150 42.778022 82.405200
 110  1      46.573187 41.555792 68.984417
 111  1      52.924076 8.555604 52.163348
 112  1      55.041039 9.777834 65.584131
 113  1      48.690150 42.778022 65.584131
 114  1      46.573187 41.555792 52.163348
 115  1      107.965116 67.222605 1.700143
 116  1      110.082079 68.444835 15.120926
 117  1      91.029411 59.889230 1.700143
 118  1      48.690150 42.778022 48.763063
 119  1      93.146374 61.111459 31.941994
 120  1      91.029411 59.889230 18.521211
 121  1      48.690150 42.778022 31.941994
 122  1      46.573187 41.555792 18.521211
 123  1      107.965116 67.222605 18.521211
 124  1      110.082079 68.444835 31.941994
 125  1      48.690150 42.778022 15.120926
 126  1      46.573187 41.555792 1.700143
 127  1      46.573187 41.555792 35.342280
 128  1      55.041039 12.222292 68.984417
 129  1      44.456224 35.444646 82.405200
 130  1      55.041039 12.222292 18.521211
 131  1      42.339261 31.777959 65.584131
 132  1      40.222298 30.555730 52.163348
 133  1      112.199042 72.111522 65.584131
 134  1      55.041039 12.222292 52.163348
 135  1      42.339261 31.777959 48.763063
 136  1      40.222298 30.555730 35.342280
 137  1      57.158002 13.444521 65.584131
 138  1      110.082079 70.889293 68.984417
 139  1      112.199042 72.111522 82.405200
 140  1      42.339261 31.777959 31.941994
 141  1      40.222298 30.555730 18.521211
 142  1      42.339261 31.777959 15.120926
 143  1      40.222298 30.555730 1.700143
 144  1      91.029411 57.444772 65.584131
 145  1      74.093707 1.222229 1.700143
 146  1      76.210670 2.444458 15.120926
 147  1      40.222298 28.111271 82.405200
 148  1      110.082079 70.889293 52.163348
 149  1      88.912448 56.222543 68.984417
 150  1      91.029411 57.444772 82.405200
 151  1      40.222298 30.555730 68.984417
 152  1      57.158002 13.444521 31.941994
 153  1      110.082079 70.889293 1.700143
 154  1      112.199042 72.111522 15.120926
 155  1      44.456224 35.444646 65.584131
 156  1      42.339261 34.222417 52.163348
 157  1      44.456224 35.444646 48.763063
 158  1      42.339261 34.222417 35.342280
 159  1      110.082079 70.889293 18.521211
 160  1      42.339261 34.222417 68.984417
 161  1      112.199042 72.111522 31.941994
 162  1      42.339261 34.222417 18.521211
 163  1      55.041039 12.222292 35.342280
 164  1      57.158002 13.444521 48.763063
 165  1      44.456224 35.444646 15.120926
 166  1      42.339261 34.222417 1.700143
 167  1      110.082079 70.889293 35.342280
 168  1      112.199042 72.111522 48.763063
 169  1      42.339261 31.777959 82.405200
 170  1      44.456224 35.444646 31.941994
 171  1      107.965116 64.778147 82.405200
 172  1      80.444596 9.777834 48.763063
 173  1      29.637483 12.222292 35.342280
 174  1      61.391929 23.222355 68.984417
 175  1      59.274966 68.444835 15.120926
 176  1      57.158002 67.222605 1.700143
 177  1      63.508892 24.444584 82.405200
 178  1      84.678522 19.555667 52.163348
 179  1      57.158002 64.778147 82.405200
 180  1      55.041039 63.555918 68.984417
 181  1      86.795485 20.777896 65.584131
 182  1      57.158002 64.778147 65.584131
 183  1      55.041039 63.555918 52.163348
 184  1      63.508892 26.889042 1.700143
 185  1      84.678522 19.555667 68.984417
 186  1      86.795485 20.777896 82.405200
 187  1      57.158002 64.778147 48.763063
 188  1      55.041039 63.555918 35.342280
 189  1      65.625855 28.111271 15.120926
 190  1      57.158002 64.778147 31.941994
 191  1      86.795485 20.777896 48.763063
 192  1      84.678522 19.555667 35.342280
 193  1      57.158002 67.222605 18.521211
 194  1      76.210670 61.111459 48.763063
 195  1      61.391929 72.111522 31.941994
 196  1      59.274966 70.889293 18.521211
 197  1      61.391929 72.111522 15.120926
 198  1      59.274966 70.889293 1.700143
 199  1      84.678522 19.555667 1.700143
 200  1      86.795485 20.777896 15.120926
 201  1      59.274966 68.444835 82.405200
 202  1      57.158002 67.222605 68.984417
 203  1      55.041039 63.555918 18.521211
 204  1      61.391929 23.222355 52.163348
 205  1      59.274966 68.444835 65.584131
 206  1      57.158002 67.222605 52.163348
 207  1      84.678522 19.555667 18.521211
 208  1      86.795485 20.777896 31.941994
 209  1      59.274966 68.444835 48.763063
 210  1      57.158002 67.222605 35.342280
 211  1      88.912448 53.778084 15.120926
 212  1      86.795485 52.555855 1.700143
 213  1      63.508892 24.444584 65.584131
 214  1      84.678522 17.111209 82.405200
 215  1      86.795485 50.111397 82.405200
 216  1      86.795485 23.222355 1.700143
 217  1      52.924076 59.889230 1.700143
 218  1      88.912448 24.444584 65.584131
 219  1      84.678522 48.889168 52.163348
 220  1      52.924076 57.444772 82.405200
 221  1      50.807113 56.222543 68.984417
 222  1      86.795485 23.222355 68.984417
 223  1      88.912448 24.444584 82.405200
 224  1      52.924076 57.444772 65.584131
 225  1      50.807113 56.222543 52.163348
 226  1      63.508892 26.889042 52.163348
 227  1      65.625855 28.111271 65.584131
 228  1      52.924076 57.444772 48.763063
 229  1      50.807113 56.222543 35.342280
 230  1      88.912448 26.889042 1.700143
 231  1      91.029411 28.111271 15.120926
 232  1      52.924076 57.444772 31.941994
 233  1      50.807113 56.222543 18.521211
 234  1      55.041039 61.111459 15.120926
 235  1      86.795485 23.222355 52.163348
 236  1      65.625855 28.111271 48.763063
 237  1      63.508892 26.889042 35.342280
 238  1      88.912448 24.444584 15.120926
 239  1      57.158002 64.778147 15.120926
 240  1      55.041039 63.555918 1.700143
 241  1      63.508892 26.889042 18.521211
 242  1      55.041039 61.111459 82.405200
 243  1      52.924076 59.889230 68.984417
 244  1      65.625855 28.111271 31.941994
 245  1      86.795485 23.222355 18.521211
 246  1      84.678522 48.889168 68.984417
 247  1      88.912448 24.444584 31.941994
 248  1      52.924076 59.889230 52.163348
 249  1      55.041039 61.111459 48.763063
 250  1      52.924076 59.889230 35.342280
 251  1      86.795485 23.222355 35.342280
 252  1      88.912448 24.444584 48.763063
 253  1      55.041039 61.111459 31.941994
 254  1      52.924076 59.889230 18.521211
 255  1      86.795485 50.111397 65.584131
 256  1      55.041039 61.111459 65.584131
 257  1      31.754446 13.444521 48.763063
 258  1      82.561559 15.888979 68.984417
 259  1      61.391929 23.222355 35.342280
 260  1      29.637483 9.777834 31.941994
 261  1      27.520520 8.555604 18.521211
 262  1      80.444596 12.222292 18.521211
 263  1      82.561559 13.444521 31.941994
 264  1      29.637483 9.777834 15.120926
 265  1      27.520520 8.555604 1.700143
 266  1      88.912448 53.778084 65.584131
 267  1      59.274966 19.555667 52.163348
 268  1      61.391929 20.777896 65.584131
 269  1      27.520520 6.111146 82.405200
 270  1      25.403557 4.888917 68.984417
 271  1      80.444596 12.222292 35.342280
 272  1      82.561559 13.444521 48.763063
 273  1      86.795485 52.555855 52.163348
 274  1      27.520520 6.111146 65.584131
 275  1      25.403557 4.888917 52.163348
 276  1      80.444596 12.222292 52.163348
 277  1      27.520520 8.555604 35.342280
 278  1      29.637483 9.777834 48.763063
 279  1      82.561559 13.444521 15.120926
 280  1      80.444596 12.222292 1.700143
 281  1      59.274966 19.555667 18.521211
 282  1      61.391929 20.777896 31.941994
 283  1      78.327633 8.555604 52.163348
 284  1      31.754446 13.444521 31.941994
 285  1      29.637483 12.222292 18.521211
 286  1      80.444596 9.777834 65.584131
 287  1      31.754446 13.444521 15.120926
 288  1      29.637483 12.222292 1.700143
 289  1      27.520520 6.111146 48.763063
 290  1      88.912448 53.778084 82.405200
 291  1      78.327633 8.555604 68.984417
 292  1      80.444596 9.777834 82.405200
 293  1      29.637483 9.777834 82.405200
 294  1      27.520520 8.555604 68.984417
 295  1      59.274966 19.555667 35.342280
 296  1      29.637483 9.777834 65.584131
 297  1      27.520520 8.555604 52.163348
 298  1      61.391929 20.777896 48.763063
 299  1      86.795485 52.555855 68.984417
 300  1      63.508892 24.444584 48.763063
 301  1      25.403557 4.888917 35.342280
 302  1      59.274966 19.555667 68.984417
 303  1      23.286594 1.222229 18.521211
 304  1      61.391929 23.222355 18.521211
 305  1      63.508892 24.444584 31.941994
 306  1      25.403557 2.444458 15.120926
 307  1      23.286594 1.222229 1.700143
 308  1      82.561559 15.888979 35.342280
 309  1      84.678522 17.111209 48.763063
 310  1      61.391929 72.111522 82.405200
 311  1      59.274966 70.889293 68.984417
 312  1      88.912448 53.778084 31.941994
 313  1      82.561559 15.888979 52.163348
 314  1      61.391929 72.111522 65.584131
 315  1      59.274966 70.889293 52.163348
 316  1      84.678522 17.111209 65.584131
 317  1      86.795485 52.555855 18.521211
 318  1      61.391929 72.111522 48.763063
 319  1      59.274966 70.889293 35.342280
 320  1      25.403557 2.444458 31.941994
 321  1      84.678522 17.111209 31.941994
 322  1      82.561559 15.888979 18.521211
 323  1      23.286594 1.222229 35.342280
 324  1      61.391929 20.777896 82.405200
 325  1      27.520520 6.111146 31.941994
 326  1      25.403557 4.888917 18.521211
 327  1      80.444596 12.222292 68.984417
 328  1      82.561559 13.444521 82.405200
 329  1      27.520520 6.111146 15.120926
 330  1      25.403557 4.888917 1.700143
 331  1      88.912448 53.778084 48.763063
 332  1      82.561559 13.444521 65.584131
 333  1      25.403557 2.444458 82.405200
 334  1      86.795485 52.555855 35.342280
 335  1      61.391929 23.222355 1.700143
 336  1      82.561559 15.888979 1.700143
 337  1      84.678522 17.111209 15.120926
 338  1      25.403557 2.444458 65.584131
 339  1      23.286594 1.222229 52.163348
 340  1      63.508892 24.444584 15.120926
 341  1      25.403557 2.444458 48.763063
 342  1      23.286594 1.222229 68.984417
 343  1      86.795485 50.111397 48.763063
 344  1      105.848153 63.555918 68.984417
 345  1      50.807113 46.444709 15.120926
 346  1      33.871409 12.222292 35.342280
 347  1      93.146374 41.555792 35.342280
 348  1      95.263337 42.778022 48.763063
 349  1      86.795485 72.111522 15.120926
 350  1      35.988372 13.444521 31.941994
 351  1      33.871409 12.222292 18.521211
 352  1      93.146374 41.555792 52.163348
 353  1      35.988372 13.444521 15.120926
 354  1      33.871409 12.222292 1.700143
 355  1      95.263337 42.778022 65.584131
 356  1      97.380300 68.444835 31.941994
 357  1      95.263337 67.222605 18.521211
 358  1      33.871409 9.777834 82.405200
 359  1      31.754446 8.555604 68.984417
 360  1      84.678522 70.889293 18.521211
 361  1      86.795485 72.111522 31.941994
 362  1      93.146374 41.555792 68.984417
 363  1      35.988372 13.444521 48.763063
 364  1      84.678522 70.889293 1.700143
 365  1      33.871409 12.222292 52.163348
 366  1      35.988372 13.444521 65.584131
 367  1      91.029411 37.889105 68.984417
 368  1      93.146374 39.111334 82.405200
 369  1      38.105335 17.111209 48.763063
 370  1      35.988372 15.888979 35.342280
 371  1      38.105335 17.111209 31.941994
 372  1      35.988372 15.888979 18.521211
 373  1      97.380300 68.444835 48.763063
 374  1      95.263337 67.222605 35.342280
 375  1      95.263337 42.778022 82.405200
 376  1      93.146374 41.555792 1.700143
 377  1      38.105335 17.111209 15.120926
 378  1      35.988372 15.888979 1.700143
 379  1      82.561559 67.222605 68.984417
 380  1      84.678522 68.444835 82.405200
 381  1      35.988372 13.444521 82.405200
 382  1      33.871409 12.222292 68.984417
 383  1      93.146374 41.555792 18.521211
 384  1      95.263337 42.778022 31.941994
 385  1      95.263337 42.778022 15.120926
 386  1      84.678522 68.444835 65.584131
 387  1      33.871409 9.777834 65.584131
 388  1      33.871409 9.777834 48.763063
 389  1      86.795485 72.111522 65.584131
 390  1      95.263337 45.222480 52.163348
 391  1      31.754446 6.111146 31.941994
 392  1      29.637483 4.888917 18.521211
 393  1      97.380300 46.444709 65.584131
 394  1      31.754446 6.111146 15.120926
 395  1      29.637483 4.888917 1.700143
 396  1      95.263337 45.222480 68.984417
 397  1      97.380300 46.444709 82.405200
 398  1      29.637483 2.444458 82.405200
 399  1      27.520520 1.222229 68.984417
 400  1      84.678522 70.889293 68.984417
 401  1      86.795485 72.111522 82.405200
 402  1      29.637483 2.444458 65.584131
 403  1      27.520520 1.222229 52.163348
 404  1      95.263337 64.778147 82.405200
 405  1      97.380300 48.889168 1.700143
 406  1      84.678522 70.889293 52.163348
 407  1      29.637483 4.888917 35.342280
 408  1      31.754446 6.111146 48.763063
 409  1      97.380300 46.444709 48.763063
 410  1      31.754446 8.555604 35.342280
 411  1      95.263337 45.222480 1.700143
 412  1      97.380300 46.444709 15.120926
 413  1      33.871409 9.777834 31.941994
 414  1      31.754446 8.555604 18.521211
 415  1      84.678522 70.889293 35.342280
 416  1      86.795485 72.111522 48.763063
 417  1      33.871409 9.777834 15.120926
 418  1      31.754446 8.555604 52.163348
 419  1      31.754446 8.555604 1.700143
 420  1      97.380300 46.444709 31.941994
 421  1      31.754446 6.111146 82.405200
 422  1      29.637483 4.888917 68.984417
 423  1      97.380300 68.444835 15.120926
 424  1      95.263337 67.222605 1.700143
 425  1      31.754446 6.111146 65.584131
 426  1      29.637483 4.888917 52.163348
 427  1      95.263337 45.222480 35.342280
 428  1      95.263337 45.222480 18.521211
 429  1      99.497264 50.111397 15.120926
 430  1      35.988372 15.888979 52.163348
 431  1      82.561559 67.222605 52.163348
 432  1      44.456224 28.111271 65.584131
 433  1      42.339261 26.889042 52.163348
 434  1      99.497264 72.111522 15.120926
 435  1      97.380300 70.889293 1.700143
 436  1      44.456224 28.111271 48.763063
 437  1      42.339261 26.889042 35.342280
 438  1      88.912448 34.222417 18.521211
 439  1      91.029411 35.444646 31.941994
 440  1      44.456224 28.111271 31.941994
 441  1      42.339261 26.889042 18.521211
 442  1      80.444596 63.555918 68.984417
 443  1      82.561559 64.778147 82.405200
 444  1      44.456224 28.111271 15.120926
 445  1      42.339261 26.889042 1.700143
 446  1      88.912448 34.222417 35.342280
 447  1      91.029411 35.444646 48.763063
 448  1      42.339261 24.444584 82.405200
 449  1      91.029411 35.444646 15.120926
 450  1      88.912448 34.222417 1.700143
 451  1      42.339261 26.889042 68.984417
 452  1      44.456224 28.111271 82.405200
 453  1      88.912448 31.777959 48.763063
 454  1      97.380300 70.889293 18.521211
 455  1      46.573187 31.777959 65.584131
 456  1      44.456224 30.555730 52.163348
 457  1      80.444596 63.555918 35.342280
 458  1      82.561559 64.778147 48.763063
 459  1      86.795485 30.555730 52.163348
 460  1      46.573187 31.777959 48.763063
 461  1      40.222298 23.222355 68.984417
 462  1      44.456224 30.555730 35.342280
 463  1      46.573187 31.777959 31.941994
 464  1      44.456224 30.555730 18.521211
 465  1      86.795485 30.555730 68.984417
 466  1      88.912448 31.777959 82.405200
 467  1      46.573187 31.777959 15.120926
 468  1      44.456224 30.555730 1.700143
 469  1      80.444596 63.555918 52.163348
 470  1      82.561559 64.778147 65.584131
 471  1      88.912448 31.777959 65.584131
 472  1      38.105335 17.111209 65.584131
 473  1      82.561559 67.222605 1.700143
 474  1      42.339261 24.444584 65.584131
 475  1      93.146374 39.111334 31.941994
 476  1      40.222298 20.777896 48.763063
 477  1      38.105335 19.555667 35.342280
 478  1      97.380300 68.444835 65.584131
 479  1      82.561559 67.222605 35.342280
 480  1      84.678522 68.444835 48.763063
 481  1      40.222298 20.777896 31.941994
 482  1      38.105335 19.555667 18.521211
 483  1      91.029411 37.889105 35.342280
 484  1      93.146374 39.111334 48.763063
 485  1      40.222298 20.777896 15.120926
 486  1      38.105335 19.555667 1.700143
 487  1      95.263337 67.222605 52.163348
 488  1      91.029411 37.889105 52.163348
 489  1      38.105335 17.111209 82.405200
 490  1      35.988372 15.888979 68.984417
 491  1      93.146374 39.111334 65.584131
 492  1      91.029411 37.889105 18.521211
 493  1      38.105335 19.555667 52.163348
 494  1      40.222298 20.777896 65.584131
 495  1      38.105335 19.555667 68.984417
 496  1      40.222298 23.222355 52.163348
 497  1      91.029411 35.444646 65.584131
 498  1      84.678522 68.444835 15.120926
 499  1      42.339261 24.444584 48.763063
 500  1      40.222298 23.222355 35.342280
 501  1      97.380300 68.444835 82.405200
 502  1      95.263337 67.222605 68.984417
 503  1      88.912448 34.222417 68.984417
 504  1      88.912448 34.222417 52.163348
 505  1      91.029411 35.444646 82.405200
 506  1      40.222298 23.222355 18.521211
 507  1      42.339261 24.444584 15.120926
 508  1      40.222298 23.222355 1.700143
 509  1      82.561559 67.222605 18.521211
 510  1      84.678522 68.444835 31.941994
 511  1      91.029411 37.889105 1.700143
 512  1      93.146374 39.111334 15.120926
 513  1      40.222298 20.777896 82.405200
 514  1      42.339261 24.444584 31.941994
 515  1      48.690150 45.222480 1.700143
 516  1      29.637483 2.444458 48.763063
 517  1      93.146374 63.555918 68.984417
 518  1      50.807113 4.888917 52.163348
 519  1      52.924076 6.111146 65.584131
 520  1      55.041039 53.778084 82.405200
 521  1      52.924076 52.555855 68.984417
 522  1      103.731190 59.889230 18.521211
 523  1      105.848153 61.111459 31.941994
 524  1      55.041039 53.778084 65.584131
 525  1      52.924076 52.555855 52.163348
 526  1      93.146374 61.111459 82.405200
 527  1      91.029411 59.889230 68.984417
 528  1      55.041039 53.778084 48.763063
 529  1      52.924076 52.555855 35.342280
 530  1      103.731190 59.889230 35.342280
 531  1      105.848153 61.111459 48.763063
 532  1      50.807113 4.888917 68.984417
 533  1      55.041039 53.778084 31.941994
 534  1      52.924076 52.555855 18.521211
 535  1      55.041039 56.222543 1.700143
 536  1      57.158002 57.444772 15.120926
 537  1      105.848153 61.111459 15.120926
 538  1      103.731190 59.889230 1.700143
 539  1      59.274966 61.111459 15.120926
 540  1      57.158002 59.889230 1.700143
 541  1      95.263337 64.778147 15.120926
 542  1      93.146374 63.555918 1.700143
 543  1      101.614227 56.222543 52.163348
 544  1      57.158002 57.444772 82.405200
 545  1      55.041039 56.222543 68.984417
 546  1      103.731190 57.444772 65.584131
 547  1      52.924076 6.111146 82.405200
 548  1      57.158002 57.444772 65.584131
 549  1      50.807113 4.888917 35.342280
 550  1      52.924076 6.111146 48.763063
 551  1      101.614227 56.222543 68.984417
 552  1      103.731190 57.444772 82.405200
 553  1      57.158002 57.444772 48.763063
 554  1      55.041039 56.222543 35.342280
 555  1      57.158002 57.444772 31.941994
 556  1      55.041039 56.222543 18.521211
 557  1      55.041039 56.222543 52.163348
 558  1      103.731190 57.444772 48.763063
 559  1      103.731190 59.889230 52.163348
 560  1      52.924076 52.555855 1.700143
 561  1      107.965116 64.778147 31.941994
 562  1      50.807113 46.444709 82.405200
 563  1      48.690150 45.222480 68.984417
 564  1      50.807113 46.444709 65.584131
 565  1      48.690150 45.222480 52.163348
 566  1      105.848153 63.555918 35.342280
 567  1      107.965116 64.778147 48.763063
 568  1      93.146374 61.111459 48.763063
 569  1      50.807113 46.444709 48.763063
 570  1      48.690150 45.222480 35.342280
 571  1      91.029411 59.889230 35.342280
 572  1      52.924076 8.555604 35.342280
 573  1      55.041039 9.777834 48.763063
 574  1      105.848153 63.555918 52.163348
 575  1      50.807113 46.444709 31.941994
 576  1      48.690150 45.222480 18.521211
 577  1      107.965116 64.778147 65.584131
 578  1      105.848153 63.555918 18.521211
 579  1      55.041039 9.777834 31.941994
 580  1      50.807113 48.889168 1.700143
 581  1      52.924076 50.111397 15.120926
 582  1      105.848153 61.111459 65.584131
 583  1      52.924076 50.111397 82.405200
 584  1      50.807113 48.889168 68.984417
 585  1      93.146374 61.111459 65.584131
 586  1      52.924076 8.555604 1.700143
 587  1      103.731190 59.889230 68.984417
 588  1      105.848153 61.111459 82.405200
 589  1      52.924076 50.111397 65.584131
 590  1      55.041039 53.778084 15.120926
 591  1      50.807113 48.889168 52.163348
 592  1      52.924076 50.111397 48.763063
 593  1      50.807113 48.889168 35.342280
 594  1      91.029411 59.889230 52.163348
 595  1      105.848153 63.555918 1.700143
 596  1      107.965116 64.778147 15.120926
 597  1      52.924076 50.111397 31.941994
 598  1      50.807113 48.889168 18.521211
 599  1      52.924076 8.555604 18.521211
 600  1      55.041039 9.777834 15.120926
 601  1      27.520520 1.222229 35.342280
 602  1      101.614227 56.222543 35.342280
 603  1      59.274966 61.111459 31.941994
 604  1      63.508892 70.889293 18.521211
 605  1      93.146374 63.555918 52.163348
 606  1      97.380300 48.889168 68.984417
 607  1      99.497264 50.111397 82.405200
 608  1      65.625855 72.111522 15.120926
 609  1      63.508892 70.889293 1.700143
 610  1      48.690150 1.222229 35.342280
 611  1      63.508892 68.444835 82.405200
 612  1      61.391929 67.222605 68.984417
 613  1      50.807113 2.444458 48.763063
 614  1      99.497264 52.555855 1.700143
 615  1      101.614227 53.778084 15.120926
 616  1      63.508892 68.444835 65.584131
 617  1      61.391929 67.222605 52.163348
 618  1      63.508892 68.444835 48.763063
 619  1      61.391929 67.222605 35.342280
 620  1      95.263337 64.778147 48.763063
 621  1      65.625855 72.111522 31.941994
 622  1      99.497264 50.111397 65.584131
 623  1      63.508892 70.889293 35.342280
 624  1      65.625855 72.111522 48.763063
 625  1      29.637483 2.444458 31.941994
 626  1      27.520520 1.222229 18.521211
 627  1      48.690150 1.222229 1.700143
 628  1      97.380300 48.889168 18.521211
 629  1      99.497264 50.111397 31.941994
 630  1      29.637483 2.444458 15.120926
 631  1      27.520520 1.222229 1.700143
 632  1      50.807113 2.444458 15.120926
 633  1      99.497264 52.555855 18.521211
 634  1      65.625855 72.111522 82.405200
 635  1      97.380300 48.889168 35.342280
 636  1      99.497264 50.111397 48.763063
 637  1      65.625855 72.111522 65.584131
 638  1      63.508892 70.889293 52.163348
 639  1      95.263337 64.778147 65.584131
 640  1      48.690150 1.222229 18.521211
 641  1      50.807113 2.444458 31.941994
 642  1      97.380300 48.889168 52.163348
 643  1      63.508892 70.889293 68.984417
 644  1      57.158002 59.889230 18.521211
 645  1      101.614227 53.778084 31.941994
 646  1      61.391929 67.222605 18.521211
 647  1      93.146374 63.555918 18.521211
 648  1      61.391929 64.778147 15.120926
 649  1      59.274966 63.555918 1.700143
 650  1      50.807113 4.888917 1.700143
 651  1      101.614227 56.222543 1.700143
 652  1      103.731190 57.444772 15.120926
 653  1      59.274966 61.111459 82.405200
 654  1      57.158002 59.889230 68.984417
 655  1      52.924076 6.111146 15.120926
 656  1      59.274966 61.111459 65.584131
 657  1      57.158002 59.889230 52.163348
 658  1      101.614227 56.222543 18.521211
 659  1      103.731190 57.444772 31.941994
 660  1      59.274966 61.111459 48.763063
 661  1      57.158002 59.889230 35.342280
 662  1      50.807113 4.888917 18.521211
 663  1      52.924076 6.111146 31.941994
 664  1      95.263337 64.778147 31.941994
 665  1      59.274966 63.555918 18.521211
 666  1      61.391929 64.778147 31.941994
 667  1      101.614227 53.778084 82.405200
 668  1      93.146374 63.555918 35.342280
 669  1      48.690150 1.222229 52.163348
 670  1      50.807113 2.444458 65.584131
 671  1      63.508892 68.444835 15.120926
 672  1      61.391929 67.222605 1.700143
 673  1      99.497264 52.555855 35.342280
 674  1      101.614227 53.778084 48.763063
 675  1      61.391929 64.778147 82.405200
 676  1      63.508892 68.444835 31.941994
 677  1      59.274966 63.555918 68.984417
 678  1      61.391929 64.778147 65.584131
 679  1      59.274966 63.555918 52.163348
 680  1      101.614227 53.778084 65.584131
 681  1      48.690150 1.222229 68.984417
 682  1      50.807113 2.444458 82.405200
 683  1      61.391929 64.778147 48.763063
 684  1      59.274966 63.555918 35.342280
 685  1      99.497264 52.555855 68.984417
 686  1      99.497264 52.555855 52.163348
 687  1      52.924076 57.444772 15.120926
 688  1      50.807113 56.222543 1.700143
 689  1      84.678522 48.889168 35.342280
 690  1      114.316005 70.889293 52.163348
 691  1      42.339261 46.444709 65.584131
 692  1      40.222298 45.222480 52.163348
 693  1      116.432968 72.111522 65.584131
 694  1      76.210670 34.222417 52.163348
 695  1      42.339261 46.444709 48.763063