<?xml version="1.0" encoding="ISO-8859-1"?>
<modeling>
 <generator>
  <i name="program" type="string">vasp </i>
  <i name="version" type="string">5.4.4.18Apr17-6-g9f103f2a35  </i>
  <i name="subversion" type="string">(build Apr 21 2021 12:29:50) complex            parallel </i>
  <i name="platform" type="string">LinuxIFC </i>
  <i name="date" type="string">2022 01 21 </i>
  <i name="time" type="string">14:28:27 </i>
 </generator>
 <incar>
  <i type="string" name="SYSTEM">ge_ran</i>
  <i type="int" name="ISTART">     0</i>
  <i type="string" name="PREC">a      ! determines the energy</i>
  <i type="string" name="ALGO">        Fast     ! select algorithm (8=C</i>
  <i type="int" name="ISPIN">     1</i>
  <i type="int" name="ICHARG">     2</i>
  <i type="int" name="NELM">   500</i>
  <i name="EDIFF">      0.00000010</i>
  <i type="int" name="ISIF">     2</i>
  <i type="int" name="ISYM">     2</i>
  <i name="ENCUT">    400.00000000</i>
  <i type="int" name="ISMEAR">     0</i>
  <i name="SIGMA">      0.05000000</i>
  <i type="logical" name="LWAVE"> F  </i>
  <i type="logical" name="LCHARG"> F  </i>
  <v type="int" name="KPOINT_BSE">    -1     0     0     0</v>
  <i type="int" name="NELM">   500</i>
  <i type="string" name="GGA">        PE      ! 91:Perdew-Wang91 | PE:</i>
  <i type="logical" name="LEPSILON"> T  </i>
 </incar>
 <structure name="primitive_cell" >
  <crystal>
   <varray name="basis" >
    <v>       4.31254270       0.00000000       0.00000000 </v>
    <v>       2.15627135       3.73477153       0.00000000 </v>
    <v>       0.00000000       0.00000000      17.48757780 </v>
   </varray>
   <i name="volume">    281.66125353 </i>
   <varray name="rec_basis" >
    <v>       0.23188176      -0.13387700       0.00000000 </v>
    <v>       0.00000000       0.26775400       0.00000000 </v>
    <v>       0.00000000       0.00000000       0.05718345 </v>
   </varray>
  </crystal>
  <varray name="positions" >
   <v>       0.35481028       0.35481028       0.09904704 </v>
   <v>      -0.33098604      -0.33098604       0.19591118 </v>
   <v>       0.00000000       0.00000000       0.00000000 </v>
   <v>      -0.31236883      -0.31236883      -0.09923894 </v>
   <v>       0.01296207       0.01296207       0.31161209 </v>
   <v>       0.33392918       0.33392918      -0.19599682 </v>
   <v>       0.33622487       0.33622487       0.40934126 </v>
   <v>       0.01265014       0.01265014      -0.31183405 </v>
   <v>      -0.33152089      -0.33152089      -0.40956805 </v>
  </varray>
 </structure>
 <varray name="primitive_index" >
  <v type="int" >        1 </v>
  <v type="int" >        6 </v>
  <v type="int" >        5 </v>
  <v type="int" >        2 </v>
  <v type="int" >        3 </v>
  <v type="int" >        9 </v>
  <v type="int" >        7 </v>
  <v type="int" >        4 </v>
  <v type="int" >        8 </v>
 </varray>
 <kpoints>
  <generation param="Gamma">
   <v type="int" name="divisions">      12       12        3 </v>
   <v name="usershift">      0.00000000       0.00000000       0.00000000 </v>
   <v name="genvec1">      0.08333333      -0.00000000       0.00000000 </v>
   <v name="genvec2">      0.00000000       0.08333333       0.00000000 </v>
   <v name="genvec3">      0.00000000       0.00000000       0.33333333 </v>
   <v name="shift">      0.00000000       0.00000000       0.00000000 </v>
  </generation>
  <varray name="kpointlist" >
   <v>       0.00000000       0.00000000       0.00000000 </v>
   <v>       0.08333333       0.00000000       0.00000000 </v>
   <v>       0.16666667       0.00000000       0.00000000 </v>
   <v>       0.25000000       0.00000000       0.00000000 </v>
   <v>       0.33333333       0.00000000       0.00000000 </v>
   <v>       0.41666667       0.00000000       0.00000000 </v>
   <v>       0.50000000       0.00000000       0.00000000 </v>
   <v>       0.08333333       0.08333333       0.00000000 </v>
   <v>       0.16666667       0.08333333       0.00000000 </v>
   <v>       0.25000000       0.08333333       0.00000000 </v>
   <v>       0.33333333       0.08333333       0.00000000 </v>
   <v>       0.41666667       0.08333333       0.00000000 </v>
   <v>       0.50000000       0.08333333       0.00000000 </v>
   <v>      -0.41666667       0.08333333       0.00000000 </v>
   <v>      -0.33333333       0.08333333       0.00000000 </v>
   <v>      -0.25000000       0.08333333       0.00000000 </v>
   <v>      -0.16666667       0.08333333       0.00000000 </v>
   <v>      -0.08333333       0.08333333       0.00000000 </v>
   <v>       0.16666667       0.16666667       0.00000000 </v>
   <v>       0.25000000       0.16666667       0.00000000 </v>
   <v>       0.33333333       0.16666667       0.00000000 </v>
   <v>       0.41666667       0.16666667       0.00000000 </v>
   <v>       0.50000000       0.16666667       0.00000000 </v>
   <v>      -0.41666667       0.16666667       0.00000000 </v>
   <v>      -0.33333333       0.16666667       0.00000000 </v>
   <v>      -0.25000000       0.16666667       0.00000000 </v>
   <v>      -0.16666667       0.16666667       0.00000000 </v>
   <v>       0.25000000       0.25000000       0.00000000 </v>
   <v>       0.33333333       0.25000000       0.00000000 </v>
   <v>       0.41666667       0.25000000       0.00000000 </v>
   <v>       0.50000000       0.25000000       0.00000000 </v>
   <v>      -0.41666667       0.25000000       0.00000000 </v>
   <v>      -0.33333333       0.25000000       0.00000000 </v>
   <v>      -0.25000000       0.25000000       0.00000000 </v>
   <v>       0.33333333       0.33333333       0.00000000 </v>
   <v>       0.41666667       0.33333333       0.00000000 </v>
   <v>       0.50000000       0.33333333       0.00000000 </v>
   <v>      -0.41666667       0.33333333       0.00000000 </v>
   <v>      -0.33333333       0.33333333       0.00000000 </v>
   <v>       0.41666667       0.41666667       0.00000000 </v>
   <v>       0.50000000       0.41666667       0.00000000 </v>
   <v>      -0.41666667       0.41666667       0.00000000 </v>
   <v>       0.50000000       0.50000000       0.00000000 </v>
   <v>       0.00000000       0.00000000       0.33333333 </v>
   <v>       0.08333333       0.00000000       0.33333333 </v>
   <v>       0.16666667       0.00000000       0.33333333 </v>
   <v>       0.25000000       0.00000000       0.33333333 </v>
   <v>       0.33333333       0.00000000       0.33333333 </v>
   <v>       0.41666667       0.00000000       0.33333333 </v>
   <v>       0.50000000       0.00000000       0.33333333 </v>
   <v>      -0.41666667      -0.00000000       0.33333333 </v>
   <v>      -0.33333333       0.00000000       0.33333333 </v>
   <v>      -0.25000000       0.00000000       0.33333333 </v>
   <v>      -0.16666667       0.00000000       0.33333333 </v>
   <v>      -0.08333333       0.00000000       0.33333333 </v>
   <v>       0.08333333       0.08333333       0.33333333 </v>
   <v>       0.16666667       0.08333333       0.33333333 </v>
   <v>       0.25000000       0.08333333       0.33333333 </v>
   <v>       0.33333333       0.08333333       0.33333333 </v>
   <v>       0.41666667       0.08333333       0.33333333 </v>
   <v>       0.50000000       0.08333333       0.33333333 </v>
   <v>      -0.41666667       0.08333333       0.33333333 </v>
   <v>      -0.33333333       0.08333333       0.33333333 </v>
   <v>      -0.25000000       0.08333333       0.33333333 </v>
   <v>      -0.16666667       0.08333333       0.33333333 </v>
   <v>      -0.08333333       0.08333333       0.33333333 </v>
   <v>       0.16666667       0.16666667       0.33333333 </v>
   <v>       0.25000000       0.16666667       0.33333333 </v>
   <v>       0.33333333       0.16666667       0.33333333 </v>
   <v>       0.41666667       0.16666667       0.33333333 </v>
   <v>       0.50000000       0.16666667       0.33333333 </v>
   <v>      -0.41666667       0.16666667       0.33333333 </v>
   <v>      -0.33333333       0.16666667       0.33333333 </v>
   <v>      -0.25000000       0.16666667       0.33333333 </v>
   <v>      -0.16666667       0.16666667       0.33333333 </v>
   <v>      -0.08333333       0.16666667       0.33333333 </v>
   <v>       0.25000000       0.25000000       0.33333333 </v>
   <v>       0.33333333       0.25000000       0.33333333 </v>
   <v>       0.41666667       0.25000000       0.33333333 </v>
   <v>       0.50000000       0.25000000       0.33333333 </v>
   <v>      -0.41666667       0.25000000       0.33333333 </v>
   <v>      -0.33333333       0.25000000       0.33333333 </v>
   <v>      -0.25000000       0.25000000       0.33333333 </v>
   <v>      -0.16666667       0.25000000       0.33333333 </v>
   <v>      -0.08333333       0.25000000       0.33333333 </v>
   <v>       0.33333333       0.33333333       0.33333333 </v>
   <v>       0.41666667       0.33333333       0.33333333 </v>
   <v>       0.50000000       0.33333333       0.33333333 </v>
   <v>      -0.41666667       0.33333333       0.33333333 </v>
   <v>      -0.33333333       0.33333333       0.33333333 </v>
   <v>      -0.25000000       0.33333333       0.33333333 </v>
   <v>      -0.16666667       0.33333333       0.33333333 </v>
   <v>      -0.08333333       0.33333333       0.33333333 </v>
   <v>       0.41666667       0.41666667       0.33333333 </v>
   <v>       0.50000000       0.41666667       0.33333333 </v>
   <v>      -0.41666667       0.41666667       0.33333333 </v>
   <v>      -0.33333333       0.41666667       0.33333333 </v>
   <v>      -0.25000000       0.41666667       0.33333333 </v>
   <v>      -0.16666667       0.41666667       0.33333333 </v>
   <v>      -0.08333333       0.41666667       0.33333333 </v>
   <v>       0.50000000       0.50000000       0.33333333 </v>
   <v>      -0.41666667       0.50000000       0.33333333 </v>
   <v>      -0.33333333       0.50000000       0.33333333 </v>
   <v>      -0.25000000       0.50000000       0.33333333 </v>
   <v>      -0.16666667       0.50000000       0.33333333 </v>
   <v>      -0.08333333       0.50000000       0.33333333 </v>
   <v>      -0.41666667      -0.41666667       0.33333333 </v>
   <v>      -0.33333333      -0.41666667       0.33333333 </v>
   <v>      -0.25000000      -0.41666667       0.33333333 </v>
   <v>      -0.16666667      -0.41666667       0.33333333 </v>
   <v>      -0.08333333      -0.41666667       0.33333333 </v>
   <v>      -0.33333333      -0.33333333       0.33333333 </v>
   <v>      -0.25000000      -0.33333333       0.33333333 </v>
   <v>      -0.16666667      -0.33333333       0.33333333 </v>
   <v>      -0.08333333      -0.33333333       0.33333333 </v>
   <v>      -0.25000000      -0.25000000       0.33333333 </v>
   <v>      -0.16666667      -0.25000000       0.33333333 </v>
   <v>      -0.08333333      -0.25000000       0.33333333 </v>
   <v>      -0.16666667      -0.16666667       0.33333333 </v>
   <v>      -0.08333333      -0.16666667       0.33333333 </v>
   <v>      -0.08333333      -0.08333333       0.33333333 </v>
  </varray>
  <varray name="weights" >
   <v>       0.00231481 </v>
   <v>       0.00925926 </v>
   <v>       0.00925926 </v>
   <v>       0.00925926 </v>
   <v>       0.00925926 </v>
   <v>       0.00925926 </v>
   <v>       0.00462963 </v>
   <v>       0.00462963 </v>
   <v>       0.00925926 </v>
   <v>       0.00925926 </v>
   <v>       0.00925926 </v>
   <v>       0.00925926 </v>
   <v>       0.00925926 </v>
   <v>       0.00925926 </v>
   <v>       0.00925926 </v>
   <v>       0.00925926 </v>
   <v>       0.00925926 </v>
   <v>       0.00462963 </v>
   <v>       0.00462963 </v>
   <v>       0.00925926 </v>
   <v>       0.00925926 </v>
   <v>       0.00925926 </v>
   <v>       0.00925926 </v>
   <v>       0.00925926 </v>
   <v>       0.00925926 </v>
   <v>       0.00925926 </v>
   <v>       0.00462963 </v>
   <v>       0.00462963 </v>
   <v>       0.00925926 </v>
   <v>       0.00925926 </v>
   <v>       0.00925926 </v>
   <v>       0.00925926 </v>
   <v>       0.00925926 </v>
   <v>       0.00462963 </v>
   <v>       0.00462963 </v>
   <v>       0.00925926 </v>
   <v>       0.00925926 </v>
   <v>       0.00925926 </v>
   <v>       0.00462963 </v>
   <v>       0.00462963 </v>
   <v>       0.00925926 </v>
   <v>       0.00462963 </v>
   <v>       0.00231481 </v>
   <v>       0.00462963 </v>
   <v>       0.00925926 </v>
   <v>       0.00925926 </v>
   <v>       0.00925926 </v>
   <v>       0.00925926 </v>
   <v>       0.00925926 </v>
   <v>       0.00925926 </v>
   <v>       0.00925926 </v>
   <v>       0.00925926 </v>
   <v>       0.00925926 </v>
   <v>       0.00925926 </v>
   <v>       0.00925926 </v>
   <v>       0.00462963 </v>
   <v>       0.00925926 </v>
   <v>       0.00925926 </v>
   <v>       0.00925926 </v>
   <v>       0.00925926 </v>
   <v>       0.00925926 </v>
   <v>       0.00925926 </v>
   <v>       0.00925926 </v>
   <v>       0.00925926 </v>
   <v>       0.00925926 </v>
   <v>       0.00925926 </v>
   <v>       0.00462963 </v>
   <v>       0.00925926 </v>
   <v>       0.00925926 </v>
   <v>       0.00925926 </v>
   <v>       0.00925926 </v>
   <v>       0.00925926 </v>
   <v>       0.00925926 </v>
   <v>       0.00925926 </v>
   <v>       0.00925926 </v>
   <v>       0.00925926 </v>
   <v>       0.00462963 </v>
   <v>       0.00925926 </v>
   <v>       0.00925926 </v>
   <v>       0.00925926 </v>
   <v>       0.00925926 </v>
   <v>       0.00925926 </v>
   <v>       0.00925926 </v>
   <v>       0.00925926 </v>
   <v>       0.00925926 </v>
   <v>       0.00462963 </v>
   <v>       0.00925926 </v>
   <v>       0.00925926 </v>
   <v>       0.00925926 </v>
   <v>       0.00925926 </v>
   <v>       0.00925926 </v>
   <v>       0.00925926 </v>
   <v>       0.00925926 </v>
   <v>       0.00462963 </v>
   <v>       0.00925926 </v>
   <v>       0.00925926 </v>
   <v>       0.00925926 </v>
   <v>       0.00925926 </v>
   <v>       0.00925926 </v>
   <v>       0.00925926 </v>
   <v>       0.00462963 </v>
   <v>       0.00925926 </v>
   <v>       0.00925926 </v>
   <v>       0.00925926 </v>
   <v>       0.00925926 </v>
   <v>       0.00925926 </v>
   <v>       0.00462963 </v>
   <v>       0.00925926 </v>
   <v>       0.00925926 </v>
   <v>       0.00925926 </v>
   <v>       0.00925926 </v>
   <v>       0.00462963 </v>
   <v>       0.00925926 </v>
   <v>       0.00925926 </v>
   <v>       0.00925926 </v>
   <v>       0.00462963 </v>
   <v>       0.00925926 </v>
   <v>       0.00925926 </v>
   <v>       0.00462963 </v>
   <v>       0.00925926 </v>
   <v>       0.00462963 </v>
  </varray>
 </kpoints>
 <parameters>
  <separator name="general" >
   <i type="string" name="SYSTEM">ge_ran</i>
   <i type="logical" name="LCOMPAT"> F  </i>
  </separator>
  <separator name="electronic" >
   <i type="string" name="PREC">a</i>
   <i name="ENMAX">    400.00000000</i>
   <i name="ENAUG">    385.84300000</i>
   <i name="EDIFF">      0.00000010</i>
   <i type="int" name="IALGO">    68</i>
   <i type="int" name="IWAVPR">    10</i>
   <i type="int" name="NBANDS">    40</i>
   <i name="NELECT">     48.00000000</i>
   <i type="int" name="TURBO">     0</i>
   <i type="int" name="IRESTART">     0</i>
   <i type="int" name="NREBOOT">     0</i>
   <i type="int" name="NMIN">     0</i>
   <i name="EREF">      0.00000000</i>
   <separator name="electronic smearing" >
    <i type="int" name="ISMEAR">     0</i>
    <i name="SIGMA">      0.05000000</i>
    <i name="KSPACING">      0.50000000</i>
    <i type="logical" name="KGAMMA"> T  </i>
   </separator>
   <separator name="electronic projectors" >
    <i type="logical" name="LREAL"> F  </i>
    <v name="ROPT">      0.00000000      0.00000000      0.00000000</v>
    <i type="int" name="LMAXPAW">  -100</i>
    <i type="int" name="LMAXMIX">     2</i>
    <i type="logical" name="NLSPLINE"> F  </i>
   </separator>
   <separator name="electronic startup" >
    <i type="int" name="ISTART">     0</i>
    <i type="int" name="ICHARG">     2</i>
    <i type="int" name="INIWAV">     1</i>
   </separator>
   <separator name="electronic spin" >
    <i type="int" name="ISPIN">     1</i>
    <i type="logical" name="LNONCOLLINEAR"> F  </i>
    <v name="MAGMOM">      1.00000000      1.00000000      1.00000000      1.00000000      1.00000000      1.00000000      1.00000000      1.00000000      1.00000000</v>
    <i name="NUPDOWN">     -1.00000000</i>
    <i type="logical" name="LSORBIT"> F  </i>
    <v name="SAXIS">      0.00000000      0.00000000      1.00000000</v>
    <i type="logical" name="LSPIRAL"> F  </i>
    <v name="QSPIRAL">      0.00000000      0.00000000      0.00000000</v>
    <i type="logical" name="LZEROZ"> F  </i>
   </separator>
   <separator name="electronic exchange-correlation" >
    <i type="logical" name="LASPH"> F  </i>
    <i type="logical" name="LMETAGGA"> F  </i>
   </separator>
   <separator name="electronic convergence" >
    <i type="int" name="NELM">   500</i>
    <i type="int" name="NELMDL">    -5</i>
    <i type="int" name="NELMIN">     2</i>
    <i name="ENINI">    400.00000000</i>
    <separator name="electronic convergence detail" >
     <i type="logical" name="LDIAG"> T  </i>
     <i type="logical" name="LSUBROT"> F  </i>
     <i name="WEIMIN">      0.00000000</i>
     <i name="EBREAK">      0.00000000</i>
     <i name="DEPER">      0.30000000</i>
     <i type="int" name="NRMM">     4</i>
     <i name="TIME">      0.40000000</i>
    </separator>
   </separator>
   <separator name="electronic mixer" >
    <i name="AMIX">      0.40000000</i>
    <i name="BMIX">      1.00000000</i>
    <i name="AMIN">      0.10000000</i>
    <i name="AMIX_MAG">      1.60000000</i>
    <i name="BMIX_MAG">      1.00000000</i>
    <separator name="electronic mixer details" >
     <i type="int" name="IMIX">     4</i>
     <i type="logical" name="MIXFIRST"> F  </i>
     <i type="int" name="MAXMIX">   -45</i>
     <i name="WC">    100.00000000</i>
     <i type="int" name="INIMIX">     1</i>
     <i type="int" name="MIXPRE">     1</i>
     <i type="int" name="MREMOVE">     5</i>
    </separator>
   </separator>
   <separator name="electronic dipolcorrection" >
    <i type="logical" name="LDIPOL"> F  </i>
    <i type="logical" name="LMONO"> F  </i>
    <i type="int" name="IDIPOL">     0</i>
    <i name="EPSILON">      1.00000000</i>
    <v name="DIPOL">   -100.00000000   -100.00000000   -100.00000000</v>
    <i name="EFIELD">      0.00000000</i>
   </separator>
  </separator>
  <separator name="grids" >
   <i type="int" name="NGX">    28</i>
   <i type="int" name="NGY">    28</i>
   <i type="int" name="NGZ">   120</i>
   <i type="int" name="NGXF">    56</i>
   <i type="int" name="NGYF">    56</i>
   <i type="int" name="NGZF">   240</i>
   <i type="logical" name="ADDGRID"> F  </i>
  </separator>
  <separator name="ionic" >
   <i type="int" name="NSW">     0</i>
   <i type="int" name="IBRION">    -1</i>
   <i type="int" name="MDALGO">     0</i>
   <i type="int" name="ISIF">     2</i>
   <i name="PSTRESS">      0.00000000</i>
   <i name="EDIFFG">      0.00000100</i>
   <i type="int" name="NFREE">     0</i>
   <i name="POTIM">      0.50000000</i>
   <i name="SMASS">     -3.00000000</i>
   <i name="SCALEE">      1.00000000</i>
  </separator>
  <separator name="ionic md" >
   <i name="TEBEG">      0.00010000</i>
   <i name="TEEND">      0.00010000</i>
   <i type="int" name="NBLOCK">     1</i>
   <i type="int" name="KBLOCK">     1</i>
   <i type="int" name="NPACO">   256</i>
   <i name="APACO">     16.00000000</i>
  </separator>
  <separator name="symmetry" >
   <i type="int" name="ISYM">     2</i>
   <i name="SYMPREC">      0.00001000</i>
  </separator>
  <separator name="dos" >
   <i type="int" name="LORBIT">     0</i>
   <v name="RWIGS">     -1.00000000     -1.00000000     -1.00000000</v>
   <i type="int" name="NEDOS">   301</i>
   <i name="EMIN">     10.00000000</i>
   <i name="EMAX">    -10.00000000</i>
   <i name="EFERMI">      0.00000000</i>
  </separator>
  <separator name="writing" >
   <i type="int" name="NWRITE">     2</i>
   <i type="logical" name="LWAVE"> F  </i>
   <i type="logical" name="LDOWNSAMPLE"> F  </i>
   <i type="logical" name="LCHARG"> F  </i>
   <i type="logical" name="LPARD"> F  </i>
   <i type="logical" name="LVTOT"> F  </i>
   <i type="logical" name="LVHAR"> F  </i>
   <i type="logical" name="LELF"> F  </i>
   <i type="logical" name="LOPTICS"> F  </i>
   <v name="STM">      0.00000000      0.00000000      0.00000000      0.00000000      0.00000000      0.00000000      0.00000000</v>
  </separator>
  <separator name="performance" >
   <i type="int" name="NPAR">    20</i>
   <i type="int" name="NSIM">     4</i>
   <i type="int" name="NBLK">    -1</i>
   <i type="logical" name="LPLANE"> T  </i>
   <i type="logical" name="LSCALAPACK"> T  </i>
   <i type="logical" name="LSCAAWARE"> F  </i>
   <i type="logical" name="LSCALU"> F  </i>
   <i type="logical" name="LASYNC"> F  </i>
   <i type="logical" name="LORBITALREAL"> F  </i>
  </separator>
  <separator name="miscellaneous" >
   <i type="int" name="IDIOT">     3</i>
   <i type="int" name="ISPECIAL">     0</i>
   <i type="logical" name="LMUSIC"> F  </i>
   <v name="POMASS">     72.61000000    121.75000000    127.60000000</v>
   <v name="DARWINR">      0.00000000      0.00000000      0.00000000</v>
   <v name="DARWINV">      1.00000000      1.00000000      1.00000000</v>
   <i type="logical" name="LCORR"> T  </i>
  </separator>
  <i type="logical" name="GGA_COMPAT"> T  </i>
  <i type="logical" name="LBERRY"> F  </i>
  <i type="int" name="ICORELEVEL">     0</i>
  <i type="logical" name="LDAU"> F  </i>
  <i type="int" name="I_CONSTRAINED_M">     0</i>
  <separator name="electronic exchange-correlation" >
   <i type="string" name="GGA">PE</i>
   <i type="int" name="VOSKOWN">     0</i>
   <i type="logical" name="LHFCALC"> F  </i>
   <i type="string" name="PRECFOCK"></i>
   <i type="logical" name="LSYMGRAD"> F  </i>
   <i type="logical" name="LHFONE"> F  </i>
   <i type="logical" name="LRHFCALC"> F  </i>
   <i type="logical" name="LTHOMAS"> F  </i>
   <i type="logical" name="LMODELHF"> F  </i>
   <i name="ENCUT4O">     -1.00000000</i>
   <i type="int" name="EXXOEP">     0</i>
   <i type="int" name="FOURORBIT">     0</i>
   <i name="AEXX">      0.00000000</i>
   <i name="HFALPHA">      0.00000000</i>
   <i name="MCALPHA">      0.00000000</i>
   <i name="ALDAX">      1.00000000</i>
   <i name="AGGAX">      1.00000000</i>
   <i name="ALDAC">      1.00000000</i>
   <i name="AGGAC">      1.00000000</i>
   <i type="int" name="NKREDX">     1</i>
   <i type="int" name="NKREDY">     1</i>
   <i type="int" name="NKREDZ">     1</i>
   <i type="logical" name="SHIFTRED"> F  </i>
   <i type="logical" name="ODDONLY"> F  </i>
   <i type="logical" name="EVENONLY"> F  </i>
   <i type="int" name="LMAXFOCK">     0</i>
   <i type="int" name="NMAXFOCKAE">     0</i>
   <i type="logical" name="LFOCKAEDFT"> F  </i>
   <i name="HFSCREEN">      0.00000000</i>
   <i name="HFSCREENC">      0.00000000</i>
   <i type="int" name="NBANDSGWLOW">     0</i>
  </separator>
  <separator name="vdW DFT" >
   <i type="logical" name="LUSE_VDW"> F  </i>
   <i name="Zab_VDW">     -0.84910000</i>
   <i name="PARAM1">      0.12340000</i>
   <i name="PARAM2">      1.00000000</i>
   <i name="PARAM3">      0.00000000</i>
  </separator>
  <separator name="model GW" >
   <i type="int" name="MODEL_GW">     0</i>
   <i name="MODEL_EPS0">     18.77741690</i>
   <i name="MODEL_ALPHA">      1.00000000</i>
  </separator>
  <separator name="linear response parameters" >
   <i type="logical" name="LEPSILON"> T  </i>
   <i type="logical" name="LRPA"> F  </i>
   <i type="logical" name="LNABLA"> F  </i>
   <i type="logical" name="LVEL"> F  </i>
   <i type="int" name="KINTER">     0</i>
   <i name="CSHIFT">      0.10000000</i>
   <i name="OMEGAMAX">     -1.00000000</i>
   <i name="DEG_THRESHOLD">      0.00200000</i>
   <i name="RTIME">     -0.10000000</i>
   <i name="WPLASMAI">      0.00000000</i>
   <v name="DFIELD">      0.00000000      0.00000000      0.00000000</v>
   <v name="WPLASMA">      0.00000000      0.00000000      0.00000000      0.00000000      0.00000000      0.00000000      0.00000000      0.00000000      0.00000000</v>
  </separator>
  <separator name="orbital magnetization" >
   <i type="logical" name="NUCIND"> F  </i>
   <v name="MAGPOS">      0.00000000      0.00000000      0.00000000</v>
   <i type="logical" name="LNICSALL"> T  </i>
   <i type="logical" name="ORBITALMAG"> F  </i>
   <i type="logical" name="LMAGBLOCH"> F  </i>
   <i type="logical" name="LCHIMAG"> F  </i>
   <i type="logical" name="LGAUGE"> T  </i>
   <i type="int" name="MAGATOM">     0</i>
   <v name="MAGDIPOL">      0.00000000      0.00000000      0.00000000</v>
   <v name="AVECCONST">      0.00000000      0.00000000      0.00000000</v>
  </separator>
  <separator name="response functions" >
   <i type="logical" name="LADDER"> F  </i>
   <i type="logical" name="LRPAFORCE"> F  </i>
   <i type="logical" name="LFXC"> F  </i>
   <i type="logical" name="LHARTREE"> T  </i>
   <i type="int" name="IBSE">     0</i>
   <v type="int" name="KPOINT">    -1     0     0     0</v>
   <i type="logical" name="LTCTE"> F  </i>
   <i type="logical" name="LTETE"> F  </i>
   <i type="logical" name="LTRIPLET"> F  </i>
   <i type="logical" name="LFXCEPS"> F  </i>
   <i type="logical" name="LFXHEG"> F  </i>
   <i type="int" name="NATURALO">     2</i>
   <i type="logical" name="L2ORDER"> F  </i>
   <i type="logical" name="LMP2LT"> F  </i>
   <i type="logical" name="LUSEW"> F  </i>
   <i name="ENCUTGW">     -2.00000000</i>
   <i name="ENCUTGWSOFT">     -2.00000000</i>
   <i name="ENCUTLF">     -1.00000000</i>
   <i type="int" name="LMAXMP2">    -1</i>
   <i name="SCISSOR">      0.00000000</i>
   <i type="int" name="NOMEGA">     0</i>
   <i type="int" name="NOMEGAR">     0</i>
   <i type="int" name="NBANDSGW">    -1</i>
   <i type="int" name="NBANDSO">    -1</i>
   <i type="int" name="NBANDSV">    -1</i>
   <i type="int" name="NELM">   500</i>
   <i type="int" name="NELMHF">     1</i>
   <i type="int" name="DIM">     3</i>
   <i type="int" name="ANTIRES">     0</i>
   <i name="OMEGAMAX">    -30.00000000</i>
   <i name="OMEGAMIN">    -30.00000000</i>
   <i name="OMEGATL">   -200.00000000</i>
   <i type="int" name="OMEGAGRID">   140</i>
   <i name="CSHIFT">     -0.10000000</i>
   <i type="logical" name="SELFENERGY"> F  </i>
   <i type="logical" name="LSPECTRAL"> F  </i>
   <i type="logical" name="LSPECTRALGW"> F  </i>
   <i type="logical" name="LSINGLES"> F  </i>
   <i type="logical" name="LFERMIGW"> F  </i>
   <i type="logical" name="ODDONLYGW"> F  </i>
   <i type="logical" name="EVENONLYGW"> F  </i>
   <i type="int" name="NKREDLFX">     1</i>
   <i type="int" name="NKREDLFY">     1</i>
   <i type="int" name="NKREDLFZ">     1</i>
   <i type="int" name="MAXMEM">  2800</i>
   <i type="int" name="TELESCOPE">     0</i>
   <i type="int" name="TAUPAR">     1</i>
   <i type="int" name="OMEGAPAR">    -1</i>
   <i name="LAMBDA">      1.00000000</i>
  </separator>
  <separator name="External order field" >
   <i name="OFIELD_KAPPA">      0.00000000</i>
   <v name="OFIELD_K">      0.00000000      0.00000000      0.00000000</v>
   <i name="OFIELD_Q6_NEAR">      0.00000000</i>
   <i name="OFIELD_Q6_FAR">      0.00000000</i>
   <i name="OFIELD_A">      0.00000000</i>
  </separator>
 </parameters>
 <atominfo>
  <atoms>       9 </atoms>
  <types>       3 </types>
  <array name="atoms" >
   <dimension dim="1">ion</dimension>
   <field type="string">element</field>
   <field type="int">atomtype</field>
   <set>
    <rc><c>Ge</c><c>   1</c></rc>
    <rc><c>Ge</c><c>   1</c></rc>
    <rc><c>Sb</c><c>   2</c></rc>
    <rc><c>Sb</c><c>   2</c></rc>
    <rc><c>Te</c><c>   3</c></rc>
    <rc><c>Te</c><c>   3</c></rc>
    <rc><c>Te</c><c>   3</c></rc>
    <rc><c>Te</c><c>   3</c></rc>
    <rc><c>Te</c><c>   3</c></rc>
   </set>
  </array>
  <array name="atomtypes" >
   <dimension dim="1">type</dimension>
   <field type="int">atomspertype</field>
   <field type="string">element</field>
   <field>mass</field>
   <field>valence</field>
   <field type="string">pseudopotential</field>
   <set>
    <rc><c>   2</c><c>Ge</c><c>     72.61000000</c><c>      4.00000000</c><c>  PAW_PBE Ge 05Jan2001                  </c></rc>
    <rc><c>   2</c><c>Sb</c><c>    121.75000000</c><c>      5.00000000</c><c>  PAW_PBE Sb 06Sep2000                  </c></rc>
    <rc><c>   5</c><c>Te</c><c>    127.60000000</c><c>      6.00000000</c><c>  PAW_PBE Te 08Apr2002                  </c></rc>
   </set>
  </array>
 </atominfo>
 <structure name="initialpos" >
  <crystal>
   <varray name="basis" >
    <v>       4.31254270       0.00000000       0.00000000 </v>
    <v>       2.15627135       3.73477153       0.00000000 </v>
    <v>       0.00000000       0.00000000      17.48757780 </v>
   </varray>
   <i name="volume">    281.66125353 </i>
   <varray name="rec_basis" >
    <v>       0.23188176      -0.13387700       0.00000000 </v>
    <v>       0.00000000       0.26775400       0.00000000 </v>
    <v>       0.00000000       0.00000000       0.05718345 </v>
   </varray>
  </crystal>
  <varray name="positions" >
   <v>       0.35481028       0.35481028       0.09904704 </v>
   <v>       0.68763117       0.68763117       0.90076106 </v>
   <v>       0.01296207       0.01296207       0.31161209 </v>
   <v>       0.01265014       0.01265014       0.68816595 </v>
   <v>       0.00000000       0.00000000       0.00000000 </v>
   <v>       0.66901396       0.66901396       0.19591118 </v>
   <v>       0.33622487       0.33622487       0.40934126 </v>
   <v>       0.66847911       0.66847911       0.59043195 </v>
   <v>       0.33392918       0.33392918       0.80400318 </v>
  </varray>
  <varray name="selective"  type="logical" >
   <v type="logical" >  T  T  T </v>
   <v type="logical" >  T  T  T </v>
   <v type="logical" >  T  T  T </v>
   <v type="logical" >  T  T  T </v>
   <v type="logical" >  F  F  F </v>
   <v type="logical" >  T  T  T </v>
   <v type="logical" >  T  T  T </v>
   <v type="logical" >  T  T  T </v>
   <v type="logical" >  T  T  T </v>
  </varray>
  <nose>
   <v>      -3.00000000       0.00000000       0.00010000       0.00010000 </v>
  </nose>
 </structure>
 <calculation>
  <scstep>
   <time name="dav">    0.47    0.47</time>
   <time name="total">    0.52    0.52</time>
   <energy>
    <i name="alphaZ">     15.91187772 </i>
    <i name="ewald">  -1636.47794781 </i>
    <i name="hartreedc">   -127.44622343 </i>
    <i name="XCdc">   -247.73747259 </i>
    <i name="pawpsdc">   1542.37021443 </i>
    <i name="pawaedc">  -1213.06010590 </i>
    <i name="eentropy">     -0.00304189 </i>
    <i name="bandstr">    200.87684673 </i>
    <i name="atom">   1626.24767551 </i>
    <i name="e_fr_energy">    160.68182276 </i>
    <i name="e_wo_entrp">    160.68486465 </i>
    <i name="e_0_energy">    160.68334371 </i>
   </energy>
  </scstep>
  <scstep>
   <time name="dav">    0.61    0.62</time>
   <time name="total">    0.61    0.62</time>
   <energy>
    <i name="e_fr_energy">    -24.00163135 </i>
    <i name="e_wo_entrp">    -24.00158465 </i>
    <i name="e_0_energy">    -24.00160800 </i>
   </energy>
  </scstep>
  <scstep>
   <time name="dav">    0.60    0.60</time>
   <time name="total">    0.60    0.60</time>
   <energy>
    <i name="e_fr_energy">    -34.06281823 </i>
    <i name="e_wo_entrp">    -34.06281823 </i>
    <i name="e_0_energy">    -34.06281823 </i>
   </energy>
  </scstep>
  <scstep>
   <time name="dav">    0.62    0.63</time>
   <time name="total">    0.62    0.63</time>
   <energy>
    <i name="e_fr_energy">    -34.20811941 </i>
    <i name="e_wo_entrp">    -34.20811941 </i>
    <i name="e_0_energy">    -34.20811941 </i>
   </energy>
  </scstep>
  <scstep>
   <time name="dav">    0.59    0.59</time>
   <time name="total">    0.64    0.64</time>
   <energy>
    <i name="e_fr_energy">    -34.20865735 </i>
    <i name="e_wo_entrp">    -34.20865735 </i>
    <i name="e_0_energy">    -34.20865735 </i>
   </energy>
  </scstep>
  <scstep>
   <time name="diag">    0.11    0.11</time>
   <time name="diis">    0.44    0.44</time>
   <time name="orth">    0.00    0.00</time>
   <time name="total">    0.63    0.63</time>
   <energy>
    <i name="e_fr_energy">    -33.99313695 </i>
    <i name="e_wo_entrp">    -33.99313695 </i>
    <i name="e_0_energy">    -33.99313695 </i>
   </energy>
  </scstep>
  <scstep>
   <time name="diag">    0.11    0.11</time>
   <time name="diis">    0.43    0.43</time>
   <time name="orth">    0.00    0.00</time>
   <time name="total">    0.61    0.61</time>
   <energy>
    <i name="e_fr_energy">    -34.12002303 </i>
    <i name="e_wo_entrp">    -34.12002287 </i>
    <i name="e_0_energy">    -34.12002295 </i>
   </energy>
  </scstep>
  <scstep>
   <time name="diag">    0.11    0.11</time>
   <time name="diis">    0.45    0.45</time>
   <time name="orth">    0.00    0.00</time>
   <time name="total">    0.63    0.63</time>
   <energy>
    <i name="e_fr_energy">    -33.99082877 </i>
    <i name="e_wo_entrp">    -33.99082877 </i>
    <i name="e_0_energy">    -33.99082877 </i>
   </energy>
  </scstep>
  <scstep>
   <time name="diag">    0.11    0.11</time>
   <time name="diis">    0.46    0.46</time>
   <time name="orth">    0.00    0.00</time>
   <time name="total">    0.65    0.65</time>
   <energy>
    <i name="e_fr_energy">    -33.98392667 </i>
    <i name="e_wo_entrp">    -33.98392667 </i>
    <i name="e_0_energy">    -33.98392667 </i>
   </energy>
  </scstep>
  <scstep>
   <time name="diag">    0.11    0.11</time>
   <time name="diis">    0.47    0.47</time>
   <time name="orth">    0.00    0.00</time>
   <time name="total">    0.66    0.66</time>
   <energy>
    <i name="e_fr_energy">    -33.98401813 </i>
    <i name="e_wo_entrp">    -33.98401813 </i>
    <i name="e_0_energy">    -33.98401813 </i>
   </energy>
  </scstep>
  <scstep>
   <time name="diag">    0.11    0.11</time>
   <time name="diis">    0.46    0.46</time>
   <time name="orth">    0.00    0.00</time>
   <time name="total">    0.65    0.65</time>
   <energy>
    <i name="e_fr_energy">    -33.98410814 </i>
    <i name="e_wo_entrp">    -33.98410814 </i>
    <i name="e_0_energy">    -33.98410814 </i>
   </energy>
  </scstep>
  <scstep>
   <time name="diag">    0.11    0.11</time>
   <time name="diis">    0.48    0.48</time>
   <time name="orth">    0.00    0.00</time>
   <time name="total">    0.67    0.67</time>
   <energy>
    <i name="e_fr_energy">    -33.98411090 </i>
    <i name="e_wo_entrp">    -33.98411090 </i>
    <i name="e_0_energy">    -33.98411090 </i>
   </energy>
  </scstep>
  <scstep>
   <time name="diag">    0.11    0.11</time>
   <time name="diis">    0.47    0.47</time>
   <time name="orth">    0.00    0.00</time>
   <time name="total">    0.65    0.66</time>
   <energy>
    <i name="e_fr_energy">    -33.98411109 </i>
    <i name="e_wo_entrp">    -33.98411109 </i>
    <i name="e_0_energy">    -33.98411109 </i>
   </energy>
  </scstep>
  <scstep>
   <time name="diag">    0.11    0.11</time>
   <time name="diis">    0.46    0.46</time>
   <time name="orth">    0.01    0.01</time>
   <time name="total">    0.65    0.66</time>
   <energy>
    <i name="e_fr_energy">    -33.98411091 </i>
    <i name="e_wo_entrp">    -33.98411091 </i>
    <i name="e_0_energy">    -33.98411091 </i>
   </energy>
  </scstep>
  <scstep>
   <time name="diag">    0.11    0.11</time>
   <time name="diis">    0.36    0.36</time>
   <time name="orth">    0.00    0.00</time>
   <time name="total">    0.55    0.55</time>
   <energy>
    <i name="e_fr_energy">    -33.98411104 </i>
    <i name="e_wo_entrp">    -33.98411104 </i>
    <i name="e_0_energy">    -33.98411104 </i>
   </energy>
  </scstep>
  <scstep>
   <time name="diag">    0.11    0.11</time>
   <time name="diis">    0.35    0.35</time>
   <time name="orth">    0.00    0.00</time>
   <time name="total">    0.49    0.49</time>
   <energy>
    <i name="alphaZ">     15.91187772 </i>
    <i name="ewald">  -1636.47794781 </i>
    <i name="hartreedc">   -130.86547788 </i>
    <i name="XCdc">   -246.97558530 </i>
    <i name="pawpsdc">   2953.61721396 </i>
    <i name="pawaedc">  -2624.71471086 </i>
    <i name="eentropy">     -0.00000000 </i>
    <i name="bandstr">      9.27284367 </i>
    <i name="atom">   1626.24767551 </i>
    <i name="e_fr_energy">    -33.98411100 </i>
    <i name="e_wo_entrp">    -33.98411100 </i>
    <i name="e_0_energy">    -33.98411100 </i>
   </energy>
  </scstep>
  <structure>
   <crystal>
    <varray name="basis" >
     <v>       4.31254270       0.00000000       0.00000000 </v>
     <v>       2.15627135       3.73477153       0.00000000 </v>
     <v>       0.00000000       0.00000000      17.48757780 </v>
    </varray>
    <i name="volume">    281.66125353 </i>
    <varray name="rec_basis" >
     <v>       0.23188176      -0.13387700       0.00000000 </v>
     <v>       0.00000000       0.26775400       0.00000000 </v>
     <v>       0.00000000       0.00000000       0.05718345 </v>
    </varray>
   </crystal>
   <varray name="positions" >
    <v>       0.35481028       0.35481028       0.09904704 </v>
    <v>       0.68763117       0.68763117       0.90076106 </v>
    <v>       0.01296207       0.01296207       0.31161209 </v>
    <v>       0.01265014       0.01265014       0.68816595 </v>
    <v>       0.00000000       0.00000000       0.00000000 </v>
    <v>       0.66901396       0.66901396       0.19591118 </v>
    <v>       0.33622487       0.33622487       0.40934126 </v>
    <v>       0.66847911       0.66847911       0.59043195 </v>
    <v>       0.33392918       0.33392918       0.80400318 </v>
   </varray>
  </structure>
  <varray name="forces" >
   <v>      -0.00022422      -0.00012945       0.00023471 </v>
   <v>       0.00011347       0.00006551      -0.00017383 </v>
   <v>      -0.00023520      -0.00013579       0.00031841 </v>
   <v>      -0.00002820      -0.00001628      -0.00023702 </v>
   <v>       0.00107777       0.00062225      -0.00011620 </v>
   <v>      -0.00025937      -0.00014975       0.00016524 </v>
   <v>      -0.00027664      -0.00015972       0.00041733 </v>
   <v>      -0.00019928      -0.00011505      -0.00038486 </v>
   <v>       0.00003168       0.00001829      -0.00022379 </v>
  </varray>
  <varray name="stress" >
   <v>      -0.49693284       1.24941543       0.12120472 </v>
   <v>       1.24941543      -1.93963351       0.06997758 </v>
   <v>       0.12120471       0.06997757      -0.41871136 </v>
  </varray>
  <energy>
   <i name="e_fr_energy">    -33.98411100 </i>
   <i name="e_wo_entrp">    -33.98411100 </i>
   <i name="e_0_energy">     -0.00000000 </i>
  </energy>
  <scstep>
   <time name="total">    0.96    1.02</time>
   <energy>
    <i name="e_fr_energy">   -239.70226891 </i>
    <i name="e_wo_entrp">   -239.70226891 </i>
    <i name="e_0_energy">   -239.70226891 </i>
   </energy>
  </scstep>
  <scstep>
   <time name="total">    0.75    0.76</time>
   <energy>
    <i name="e_fr_energy">   -208.48933653 </i>
    <i name="e_wo_entrp">   -208.48933653 </i>
    <i name="e_0_energy">   -208.48933653 </i>
   </energy>
  </scstep>
  <scstep>
   <time name="total">    0.79    0.80</time>
   <energy>
    <i name="e_fr_energy">   -208.81090407 </i>
    <i name="e_wo_entrp">   -208.81090407 </i>
    <i name="e_0_energy">   -208.81090407 </i>
   </energy>
  </scstep>
  <scstep>
   <time name="total">    0.63    0.63</time>
   <energy>
    <i name="e_fr_energy">   -208.81618218 </i>
    <i name="e_wo_entrp">   -208.81618218 </i>
    <i name="e_0_energy">   -208.81618218 </i>
   </energy>
  </scstep>
  <scstep>
   <time name="total">    0.63    0.64</time>
   <energy>
    <i name="e_fr_energy">   -208.81596926 </i>
    <i name="e_wo_entrp">   -208.81596926 </i>
    <i name="e_0_energy">   -208.81596926 </i>
   </energy>
  </scstep>
  <scstep>
   <time name="total">    0.63    0.64</time>
   <energy>
    <i name="e_fr_energy">   -208.81599960 </i>
    <i name="e_wo_entrp">   -208.81599960 </i>
    <i name="e_0_energy">   -208.81599960 </i>
   </energy>
  </scstep>
  <scstep>
   <time name="total">    0.64    0.64</time>
   <energy>
    <i name="e_fr_energy">   -208.81599040 </i>
    <i name="e_wo_entrp">   -208.81599040 </i>
    <i name="e_0_energy">   -208.81599040 </i>
   </energy>
  </scstep>
  <scstep>
   <time name="total">    0.60    0.61</time>
   <energy>
    <i name="e_fr_energy">   -208.81599122 </i>
    <i name="e_wo_entrp">   -208.81599122 </i>
    <i name="e_0_energy">   -208.81599122 </i>
   </energy>
  </scstep>
  <scstep>
   <time name="total">    0.49    0.50</time>
   <energy>
    <i name="e_fr_energy">   -208.81598976 </i>
    <i name="e_wo_entrp">   -208.81598976 </i>
    <i name="e_0_energy">   -208.81598976 </i>
   </energy>
  </scstep>
  <scstep>
   <time name="total">    0.48    0.48</time>
   <energy>
    <i name="e_fr_energy">   -208.81598956 </i>
    <i name="e_wo_entrp">   -208.81598956 </i>
    <i name="e_0_energy">   -208.81598956 </i>
   </energy>
  </scstep>
  <scstep>
   <time name="total">    0.47    0.48</time>
   <energy>
    <i name="e_fr_energy">   -208.81598966 </i>
    <i name="e_wo_entrp">   -208.81598966 </i>
    <i name="e_0_energy">   -208.81598966 </i>
   </energy>
  </scstep>
  <scstep>
   <time name="total">    1.10    1.10</time>
   <energy>
    <i name="e_fr_energy">   -277.80182436 </i>
    <i name="e_wo_entrp">   -277.80182436 </i>
    <i name="e_0_energy">   -277.80182436 </i>
   </energy>
  </scstep>
  <scstep>
   <time name="total">    0.80    0.80</time>
   <energy>
    <i name="e_fr_energy">   -236.72215569 </i>
    <i name="e_wo_entrp">   -236.72215569 </i>
    <i name="e_0_energy">   -236.72215569 </i>
   </energy>
  </scstep>
  <scstep>
   <time name="total">    0.81    0.82</time>
   <energy>
    <i name="e_fr_energy">   -237.08119339 </i>
    <i name="e_wo_entrp">   -237.08119339 </i>
    <i name="e_0_energy">   -237.08119339 </i>
   </energy>
  </scstep>
  <scstep>
   <time name="total">    0.64    0.65</time>
   <energy>
    <i name="e_fr_energy">   -237.08334502 </i>
    <i name="e_wo_entrp">   -237.08334502 </i>
    <i name="e_0_energy">   -237.08334502 </i>
   </energy>
  </scstep>
  <scstep>
   <time name="total">    0.65    0.65</time>
   <energy>
    <i name="e_fr_energy">   -237.08311945 </i>
    <i name="e_wo_entrp">   -237.08311945 </i>
    <i name="e_0_energy">   -237.08311945 </i>
   </energy>
  </scstep>
  <scstep>
   <time name="total">    0.65    0.65</time>
   <energy>
    <i name="e_fr_energy">   -237.08301394 </i>
    <i name="e_wo_entrp">   -237.08301394 </i>
    <i name="e_0_energy">   -237.08301394 </i>
   </energy>
  </scstep>
  <scstep>
   <time name="total">    0.65    0.65</time>
   <energy>
    <i name="e_fr_energy">   -237.08301240 </i>
    <i name="e_wo_entrp">   -237.08301240 </i>
    <i name="e_0_energy">   -237.08301240 </i>
   </energy>
  </scstep>
  <scstep>
   <time name="total">    0.61    0.61</time>
   <energy>
    <i name="e_fr_energy">   -237.08301001 </i>
    <i name="e_wo_entrp">   -237.08301001 </i>
    <i name="e_0_energy">   -237.08301001 </i>
   </energy>
  </scstep>
  <scstep>
   <time name="total">    0.50    0.51</time>
   <energy>
    <i name="e_fr_energy">   -237.08301075 </i>
    <i name="e_wo_entrp">   -237.08301075 </i>
    <i name="e_0_energy">   -237.08301075 </i>
   </energy>
  </scstep>
  <scstep>
   <time name="total">    0.44    0.44</time>
   <energy>
    <i name="e_fr_energy">   -237.08301061 </i>
    <i name="e_wo_entrp">   -237.08301061 </i>
    <i name="e_0_energy">   -237.08301061 </i>
   </energy>
  </scstep>
  <scstep>
   <time name="total">    0.43    0.44</time>
   <energy>
    <i name="e_fr_energy">   -237.08301052 </i>
    <i name="e_wo_entrp">   -237.08301052 </i>
    <i name="e_0_energy">   -237.08301052 </i>
   </energy>
  </scstep>
  <scstep>
   <time name="total">    1.08    1.09</time>
   <energy>
    <i name="e_fr_energy">   -277.13560480 </i>
    <i name="e_wo_entrp">   -277.13560480 </i>
    <i name="e_0_energy">   -277.13560480 </i>
   </energy>
  </scstep>
  <scstep>
   <time name="total">    0.78    0.78</time>
   <energy>
    <i name="e_fr_energy">   -222.64381483 </i>
    <i name="e_wo_entrp">   -222.64381483 </i>
    <i name="e_0_energy">   -222.64381483 </i>
   </energy>
  </scstep>
  <scstep>
   <time name="total">    0.80    0.80</time>
   <energy>
    <i name="e_fr_energy">   -223.00873476 </i>
    <i name="e_wo_entrp">   -223.00873476 </i>
    <i name="e_0_energy">   -223.00873476 </i>
   </energy>
  </scstep>
  <scstep>
   <time name="total">    0.62    0.62</time>
   <energy>
    <i name="e_fr_energy">   -223.01749708 </i>
    <i name="e_wo_entrp">   -223.01749708 </i>
    <i name="e_0_energy">   -223.01749708 </i>
   </energy>
  </scstep>
  <scstep>
   <time name="total">    0.62    0.62</time>
   <energy>
    <i name="e_fr_energy">   -223.01756609 </i>
    <i name="e_wo_entrp">   -223.01756609 </i>
    <i name="e_0_energy">   -223.01756609 </i>
   </energy>
  </scstep>
  <scstep>
   <time name="total">    0.62    0.62</time>
   <energy>
    <i name="e_fr_energy">   -223.01756683 </i>
    <i name="e_wo_entrp">   -223.01756683 </i>
    <i name="e_0_energy">   -223.01756683 </i>
   </energy>
  </scstep>
  <scstep>
   <time name="total">    0.62    0.62</time>
   <energy>
    <i name="e_fr_energy">   -223.01756856 </i>
    <i name="e_wo_entrp">   -223.01756856 </i>
    <i name="e_0_energy">   -223.01756856 </i>
   </energy>
  </scstep>
  <scstep>
   <time name="total">    0.60    0.60</time>
   <energy>
    <i name="e_fr_energy">   -223.01756832 </i>
    <i name="e_wo_entrp">   -223.01756832 </i>
    <i name="e_0_energy">   -223.01756832 </i>
   </energy>
  </scstep>
  <scstep>
   <time name="total">    0.50    0.51</time>
   <energy>
    <i name="e_fr_energy">   -223.01756835 </i>
    <i name="e_wo_entrp">   -223.01756835 </i>
    <i name="e_0_energy">   -223.01756835 </i>
   </energy>
  </scstep>
  <scstep>
   <time name="total">    0.48    0.48</time>
   <energy>
    <i name="e_fr_energy">   -223.01756832 </i>
    <i name="e_wo_entrp">   -223.01756832 </i>
    <i name="e_0_energy">   -223.01756832 </i>
   </energy>
  </scstep>
  <scstep>
   <time name="total">    0.47    0.47</time>
   <energy>
    <i name="e_fr_energy">   -223.01756833 </i>
    <i name="e_wo_entrp">   -223.01756833 </i>
    <i name="e_0_energy">   -223.01756833 </i>
   </energy>
  </scstep>
  <scstep>
   <time name="total">    0.82    0.83</time>
   <energy>
    <i name="e_fr_energy">    -30.54412570 </i>
    <i name="e_wo_entrp">    -30.54412570 </i>
    <i name="e_0_energy">    -30.54412570 </i>
   </energy>
  </scstep>
  <scstep>
   <time name="total">    0.70    0.70</time>
   <energy>
    <i name="e_fr_energy">    -32.12290683 </i>
    <i name="e_wo_entrp">    -32.12290683 </i>
    <i name="e_0_energy">    -32.12290683 </i>
   </energy>
  </scstep>
  <scstep>
   <time name="total">    0.70    0.71</time>
   <energy>
    <i name="e_fr_energy">    -32.13122096 </i>
    <i name="e_wo_entrp">    -32.13122096 </i>
    <i name="e_0_energy">    -32.13122096 </i>
   </energy>
  </scstep>
  <scstep>
   <time name="total">    0.71    0.71</time>
   <energy>
    <i name="e_fr_energy">    -32.13128715 </i>
    <i name="e_wo_entrp">    -32.13128715 </i>
    <i name="e_0_energy">    -32.13128715 </i>
   </energy>
  </scstep>
  <scstep>
   <time name="total">    0.72    0.73</time>
   <energy>
    <i name="e_fr_energy">    -32.13128831 </i>
    <i name="e_wo_entrp">    -32.13128831 </i>
    <i name="e_0_energy">    -32.13128831 </i>
   </energy>
  </scstep>
  <scstep>
   <time name="total">    0.69    0.69</time>
   <energy>
    <i name="e_fr_energy">    -32.13128833 </i>
    <i name="e_wo_entrp">    -32.13128833 </i>
    <i name="e_0_energy">    -32.13128833 </i>
   </energy>
  </scstep>
  <scstep>
   <time name="total">    0.82    0.82</time>
   <energy>
    <i name="e_fr_energy">    -41.02923245 </i>
    <i name="e_wo_entrp">    -41.02923245 </i>
    <i name="e_0_energy">    -41.02923245 </i>
   </energy>
  </scstep>
  <scstep>
   <time name="total">    0.71    0.72</time>
   <energy>
    <i name="e_fr_energy">    -42.78177163 </i>
    <i name="e_wo_entrp">    -42.78177163 </i>
    <i name="e_0_energy">    -42.78177163 </i>
   </energy>
  </scstep>
  <scstep>
   <time name="total">    0.71    0.71</time>
   <energy>
    <i name="e_fr_energy">    -42.79011152 </i>
    <i name="e_wo_entrp">    -42.79011152 </i>
    <i name="e_0_energy">    -42.79011152 </i>
   </energy>
  </scstep>
  <scstep>
   <time name="total">    0.71    0.71</time>
   <energy>
    <i name="e_fr_energy">    -42.79017532 </i>
    <i name="e_wo_entrp">    -42.79017532 </i>
    <i name="e_0_energy">    -42.79017532 </i>
   </energy>
  </scstep>
  <scstep>
   <time name="total">    0.71    0.71</time>
   <energy>
    <i name="e_fr_energy">    -42.79017651 </i>
    <i name="e_wo_entrp">    -42.79017651 </i>
    <i name="e_0_energy">    -42.79017651 </i>
   </energy>
  </scstep>
  <scstep>
   <time name="total">    0.69    0.69</time>
   <energy>
    <i name="e_fr_energy">    -42.79017655 </i>
    <i name="e_wo_entrp">    -42.79017655 </i>
    <i name="e_0_energy">    -42.79017655 </i>
   </energy>
  </scstep>
  <scstep>
   <time name="total">    0.81    0.81</time>
   <energy>
    <i name="e_fr_energy">    -30.69296025 </i>
    <i name="e_wo_entrp">    -30.69296025 </i>
    <i name="e_0_energy">    -30.69296025 </i>
   </energy>
  </scstep>
  <scstep>
   <time name="total">    0.70    0.70</time>
   <energy>
    <i name="e_fr_energy">    -32.41284985 </i>
    <i name="e_wo_entrp">    -32.41284985 </i>
    <i name="e_0_energy">    -32.41284985 </i>
   </energy>
  </scstep>
  <scstep>
   <time name="total">    0.70    0.71</time>
   <energy>
    <i name="e_fr_energy">    -32.42211271 </i>
    <i name="e_wo_entrp">    -32.42211271 </i>
    <i name="e_0_energy">    -32.42211271 </i>
   </energy>
  </scstep>
  <scstep>
   <time name="total">    0.71    0.71</time>
   <energy>
    <i name="e_fr_energy">    -32.42219541 </i>
    <i name="e_wo_entrp">    -32.42219541 </i>
    <i name="e_0_energy">    -32.42219541 </i>
   </energy>
  </scstep>
  <scstep>
   <time name="total">    0.71    0.71</time>
   <energy>
    <i name="e_fr_energy">    -32.42219692 </i>
    <i name="e_wo_entrp">    -32.42219692 </i>
    <i name="e_0_energy">    -32.42219692 </i>
   </energy>
  </scstep>
  <scstep>
   <time name="total">    0.69    0.69</time>
   <energy>
    <i name="e_fr_energy">    -32.42219696 </i>
    <i name="e_wo_entrp">    -32.42219696 </i>
    <i name="e_0_energy">    -32.42219696 </i>
   </energy>
  </scstep>
  <varray name="epsilon_rpa" >
   <v>      48.19860782      -1.61886048      -1.07201694 </v>
   <v>      -1.61886048      50.06790689      -0.61892927 </v>
   <v>      -1.07066878      -0.61815091      42.65923354 </v>
  </varray>
  <kpoints>
   <generation param="Gamma">
    <v type="int" name="divisions">      12       12        3 </v>
    <v name="usershift">      0.00000000       0.00000000       0.00000000 </v>
    <v name="genvec1">      0.08333333      -0.00000000       0.00000000 </v>
    <v name="genvec2">      0.00000000       0.08333333       0.00000000 </v>
    <v name="genvec3">      0.00000000       0.00000000       0.33333333 </v>
    <v name="shift">      0.00000000       0.00000000       0.00000000 </v>
   </generation>
   <varray name="kpointlist" >
    <v>       0.00000000       0.00000000       0.00000000 </v>
    <v>       0.08333333       0.00000000       0.00000000 </v>
    <v>       0.16666667       0.00000000       0.00000000 </v>
    <v>       0.25000000       0.00000000       0.00000000 </v>
    <v>       0.33333333       0.00000000       0.00000000 </v>
    <v>       0.41666667       0.00000000       0.00000000 </v>
    <v>       0.50000000       0.00000000       0.00000000 </v>
    <v>       0.00000000       0.08333333       0.00000000 </v>
    <v>       0.08333333       0.08333333       0.00000000 </v>
    <v>       0.16666667       0.08333333       0.00000000 </v>
    <v>       0.25000000       0.08333333       0.00000000 </v>
    <v>       0.33333333       0.08333333       0.00000000 </v>
    <v>       0.41666667       0.08333333       0.00000000 </v>
    <v>       0.50000000       0.08333333       0.00000000 </v>
    <v>      -0.41666667       0.08333333       0.00000000 </v>
    <v>      -0.33333333       0.08333333       0.00000000 </v>
    <v>      -0.25000000       0.08333333       0.00000000 </v>
    <v>      -0.16666667       0.08333333       0.00000000 </v>
    <v>      -0.08333333       0.08333333       0.00000000 </v>
    <v>       0.00000000       0.16666667       0.00000000 </v>
    <v>       0.08333333       0.16666667       0.00000000 </v>
    <v>       0.16666667       0.16666667       0.00000000 </v>
    <v>       0.25000000       0.16666667       0.00000000 </v>
    <v>       0.33333333       0.16666667       0.00000000 </v>
    <v>       0.41666667       0.16666667       0.00000000 </v>
    <v>       0.50000000       0.16666667       0.00000000 </v>
    <v>      -0.41666667       0.16666667       0.00000000 </v>
    <v>      -0.33333333       0.16666667       0.00000000 </v>
    <v>      -0.25000000       0.16666667       0.00000000 </v>
    <v>      -0.16666667       0.16666667       0.00000000 </v>
    <v>      -0.08333333       0.16666667       0.00000000 </v>
    <v>       0.00000000       0.25000000       0.00000000 </v>
    <v>       0.08333333       0.25000000       0.00000000 </v>
    <v>       0.16666667       0.25000000       0.00000000 </v>
    <v>       0.25000000       0.25000000       0.00000000 </v>
    <v>       0.33333333       0.25000000       0.00000000 </v>
    <v>       0.41666667       0.25000000       0.00000000 </v>
    <v>       0.50000000       0.25000000       0.00000000 </v>
    <v>      -0.41666667       0.25000000       0.00000000 </v>
    <v>      -0.33333333       0.25000000       0.00000000 </v>
    <v>      -0.25000000       0.25000000       0.00000000 </v>
    <v>      -0.16666667       0.25000000       0.00000000 </v>
    <v>      -0.08333333       0.25000000       0.00000000 </v>
    <v>       0.00000000       0.33333333       0.00000000 </v>
    <v>       0.08333333       0.33333333       0.00000000 </v>
    <v>       0.16666667       0.33333333       0.00000000 </v>
    <v>       0.25000000       0.33333333       0.00000000 </v>
    <v>       0.33333333       0.33333333       0.00000000 </v>
    <v>       0.41666667       0.33333333       0.00000000 </v>
    <v>       0.50000000       0.33333333       0.00000000 </v>
    <v>      -0.41666667       0.33333333       0.00000000 </v>
    <v>      -0.33333333       0.33333333       0.00000000 </v>
    <v>      -0.25000000       0.33333333       0.00000000 </v>
    <v>      -0.16666667       0.33333333       0.00000000 </v>
    <v>      -0.08333333       0.33333333       0.00000000 </v>
    <v>       0.00000000       0.41666667       0.00000000 </v>
    <v>       0.08333333       0.41666667       0.00000000 </v>
    <v>       0.16666667       0.41666667       0.00000000 </v>
    <v>       0.25000000       0.41666667       0.00000000 </v>
    <v>       0.33333333       0.41666667       0.00000000 </v>
    <v>       0.41666667       0.41666667       0.00000000 </v>
    <v>       0.50000000       0.41666667       0.00000000 </v>
    <v>      -0.41666667       0.41666667       0.00000000 </v>
    <v>      -0.33333333       0.41666667       0.00000000 </v>
    <v>      -0.25000000       0.41666667       0.00000000 </v>
    <v>      -0.16666667       0.41666667       0.00000000 </v>
    <v>      -0.08333333       0.41666667       0.00000000 </v>
    <v>       0.00000000       0.50000000       0.00000000 </v>
    <v>       0.08333333       0.50000000       0.00000000 </v>
    <v>       0.16666667       0.50000000       0.00000000 </v>
    <v>       0.25000000       0.50000000       0.00000000 </v>
    <v>       0.33333333       0.50000000       0.00000000 </v>
    <v>       0.41666667       0.50000000       0.00000000 </v>
    <v>       0.50000000       0.50000000       0.00000000 </v>
    <v>       0.00000000       0.00000000       0.33333333 </v>
    <v>       0.08333333       0.00000000       0.33333333 </v>
    <v>       0.16666667       0.00000000       0.33333333 </v>
    <v>       0.25000000       0.00000000       0.33333333 </v>
    <v>       0.33333333       0.00000000       0.33333333 </v>
    <v>       0.41666667       0.00000000       0.33333333 </v>
    <v>       0.50000000       0.00000000       0.33333333 </v>
    <v>      -0.41666667      -0.00000000       0.33333333 </v>
    <v>      -0.33333333       0.00000000       0.33333333 </v>
    <v>      -0.25000000       0.00000000       0.33333333 </v>
    <v>      -0.16666667       0.00000000       0.33333333 </v>
    <v>      -0.08333333       0.00000000       0.33333333 </v>
    <v>       0.00000000       0.08333333       0.33333333 </v>
    <v>       0.08333333       0.08333333       0.33333333 </v>
    <v>       0.16666667       0.08333333       0.33333333 </v>
    <v>       0.25000000       0.08333333       0.33333333 </v>
    <v>       0.33333333       0.08333333       0.33333333 </v>
    <v>       0.41666667       0.08333333       0.33333333 </v>
    <v>       0.50000000       0.08333333       0.33333333 </v>
    <v>      -0.41666667       0.08333333       0.33333333 </v>
    <v>      -0.33333333       0.08333333       0.33333333 </v>
    <v>      -0.25000000       0.08333333       0.33333333 </v>
    <v>      -0.16666667       0.08333333       0.33333333 </v>
    <v>      -0.08333333       0.08333333       0.33333333 </v>
    <v>       0.00000000       0.16666667       0.33333333 </v>
    <v>       0.08333333       0.16666667       0.33333333 </v>
    <v>       0.16666667       0.16666667       0.33333333 </v>
    <v>       0.25000000       0.16666667       0.33333333 </v>
    <v>       0.33333333       0.16666667       0.33333333 </v>
    <v>       0.41666667       0.16666667       0.33333333 </v>
    <v>       0.50000000       0.16666667       0.33333333 </v>
    <v>      -0.41666667       0.16666667       0.33333333 </v>
    <v>      -0.33333333       0.16666667       0.33333333 </v>
    <v>      -0.25000000       0.16666667       0.33333333 </v>
    <v>      -0.16666667       0.16666667       0.33333333 </v>
    <v>      -0.08333333       0.16666667       0.33333333 </v>
    <v>       0.00000000       0.25000000       0.33333333 </v>
    <v>       0.08333333       0.25000000       0.33333333 </v>
    <v>       0.16666667       0.25000000       0.33333333 </v>
    <v>       0.25000000       0.25000000       0.33333333 </v>
    <v>       0.33333333       0.25000000       0.33333333 </v>
    <v>       0.41666667       0.25000000       0.33333333 </v>
    <v>       0.50000000       0.25000000       0.33333333 </v>
    <v>      -0.41666667       0.25000000       0.33333333 </v>
    <v>      -0.33333333       0.25000000       0.33333333 </v>
    <v>      -0.25000000       0.25000000       0.33333333 </v>
    <v>      -0.16666667       0.25000000       0.33333333 </v>
    <v>      -0.08333333       0.25000000       0.33333333 </v>
    <v>       0.00000000       0.33333333       0.33333333 </v>
    <v>       0.08333333       0.33333333       0.33333333 </v>
    <v>       0.16666667       0.33333333       0.33333333 </v>
    <v>       0.25000000       0.33333333       0.33333333 </v>
    <v>       0.33333333       0.33333333       0.33333333 </v>
    <v>       0.41666667       0.33333333       0.33333333 </v>
    <v>       0.50000000       0.33333333       0.33333333 </v>
    <v>      -0.41666667       0.33333333       0.33333333 </v>
    <v>      -0.33333333       0.33333333       0.33333333 </v>
    <v>      -0.25000000       0.33333333       0.33333333 </v>
    <v>      -0.16666667       0.33333333       0.33333333 </v>
    <v>      -0.08333333       0.33333333       0.33333333 </v>
    <v>       0.00000000       0.41666667       0.33333333 </v>
    <v>       0.08333333       0.41666667       0.33333333 </v>
    <v>       0.16666667       0.41666667       0.33333333 </v>
    <v>       0.25000000       0.41666667       0.33333333 </v>
    <v>       0.33333333       0.41666667       0.33333333 </v>
    <v>       0.41666667       0.41666667       0.33333333 </v>
    <v>       0.50000000       0.41666667       0.33333333 </v>
    <v>      -0.41666667       0.41666667       0.33333333 </v>
    <v>      -0.33333333       0.41666667       0.33333333 </v>
    <v>      -0.25000000       0.41666667       0.33333333 </v>
    <v>      -0.16666667       0.41666667       0.33333333 </v>
    <v>      -0.08333333       0.41666667       0.33333333 </v>
    <v>       0.00000000       0.50000000       0.33333333 </v>
    <v>       0.08333333       0.50000000       0.33333333 </v>
    <v>       0.16666667       0.50000000       0.33333333 </v>
    <v>       0.25000000       0.50000000       0.33333333 </v>
    <v>       0.33333333       0.50000000       0.33333333 </v>
    <v>       0.41666667       0.50000000       0.33333333 </v>
    <v>       0.50000000       0.50000000       0.33333333 </v>
    <v>      -0.41666667       0.50000000       0.33333333 </v>
    <v>      -0.33333333       0.50000000       0.33333333 </v>
    <v>      -0.25000000       0.50000000       0.33333333 </v>
    <v>      -0.16666667       0.50000000       0.33333333 </v>
    <v>      -0.08333333       0.50000000       0.33333333 </v>
    <v>       0.00000000      -0.41666667       0.33333333 </v>
    <v>       0.08333333      -0.41666667       0.33333333 </v>
    <v>       0.16666667      -0.41666667       0.33333333 </v>
    <v>       0.25000000      -0.41666667       0.33333333 </v>
    <v>       0.33333333      -0.41666667       0.33333333 </v>
    <v>       0.41666667      -0.41666667       0.33333333 </v>
    <v>       0.50000000      -0.41666667       0.33333333 </v>
    <v>      -0.41666667      -0.41666667       0.33333333 </v>
    <v>      -0.33333333      -0.41666667       0.33333333 </v>
    <v>      -0.25000000      -0.41666667       0.33333333 </v>
    <v>      -0.16666667      -0.41666667       0.33333333 </v>
    <v>      -0.08333333      -0.41666667       0.33333333 </v>
    <v>       0.00000000      -0.33333333       0.33333333 </v>
    <v>       0.08333333      -0.33333333       0.33333333 </v>
    <v>       0.16666667      -0.33333333       0.33333333 </v>
    <v>       0.25000000      -0.33333333       0.33333333 </v>
    <v>       0.33333333      -0.33333333       0.33333333 </v>
    <v>       0.41666667      -0.33333333       0.33333333 </v>
    <v>       0.50000000      -0.33333333       0.33333333 </v>
    <v>      -0.41666667      -0.33333333       0.33333333 </v>
    <v>      -0.33333333      -0.33333333       0.33333333 </v>
    <v>      -0.25000000      -0.33333333       0.33333333 </v>
    <v>      -0.16666667      -0.33333333       0.33333333 </v>
    <v>      -0.08333333      -0.33333333       0.33333333 </v>
    <v>       0.00000000      -0.25000000       0.33333333 </v>
    <v>       0.08333333      -0.25000000       0.33333333 </v>
    <v>       0.16666667      -0.25000000       0.33333333 </v>
    <v>       0.25000000      -0.25000000       0.33333333 </v>
    <v>       0.33333333      -0.25000000       0.33333333 </v>
    <v>       0.41666667      -0.25000000       0.33333333 </v>
    <v>       0.50000000      -0.25000000       0.33333333 </v>
    <v>      -0.41666667      -0.25000000       0.33333333 </v>
    <v>      -0.33333333      -0.25000000       0.33333333 </v>
    <v>      -0.25000000      -0.25000000       0.33333333 </v>
    <v>      -0.16666667      -0.25000000       0.33333333 </v>
    <v>      -0.08333333      -0.25000000       0.33333333 </v>
    <v>       0.00000000      -0.16666667       0.33333333 </v>
    <v>       0.08333333      -0.16666667       0.33333333 </v>
    <v>       0.16666667      -0.16666667       0.33333333 </v>
    <v>       0.25000000      -0.16666667       0.33333333 </v>
    <v>       0.33333333      -0.16666667       0.33333333 </v>
    <v>       0.41666667      -0.16666667       0.33333333 </v>
    <v>       0.50000000      -0.16666667       0.33333333 </v>
    <v>      -0.41666667      -0.16666667       0.33333333 </v>
    <v>      -0.33333333      -0.16666667       0.33333333 </v>
    <v>      -0.25000000      -0.16666667       0.33333333 </v>
    <v>      -0.16666667      -0.16666667       0.33333333 </v>
    <v>      -0.08333333      -0.16666667       0.33333333 </v>
    <v>       0.00000000      -0.08333333       0.33333333 </v>
    <v>       0.08333333      -0.08333333       0.33333333 </v>
    <v>       0.16666667      -0.08333333       0.33333333 </v>
    <v>       0.25000000      -0.08333333       0.33333333 </v>
    <v>       0.33333333      -0.08333333       0.33333333 </v>
    <v>       0.41666667      -0.08333333       0.33333333 </v>
    <v>       0.50000000      -0.08333333       0.33333333 </v>
    <v>      -0.41666667      -0.08333333       0.33333333 </v>
    <v>      -0.33333333      -0.08333333       0.33333333 </v>
    <v>      -0.25000000      -0.08333333       0.33333333 </v>
    <v>      -0.16666667      -0.08333333       0.33333333 </v>
    <v>      -0.08333333      -0.08333333       0.33333333 </v>
   </varray>
   <varray name="weights" >
    <v>       0.00231481 </v>
    <v>       0.00462963 </v>
    <v>       0.00462963 </v>
    <v>       0.00462963 </v>
    <v>       0.00462963 </v>
    <v>       0.00462963 </v>
    <v>       0.00231481 </v>
    <v>       0.00462963 </v>
    <v>       0.00462963 </v>
    <v>       0.00462963 </v>
    <v>       0.00462963 </v>
    <v>       0.00462963 </v>
    <v>       0.00462963 </v>
    <v>       0.00462963 </v>
    <v>       0.00462963 </v>
    <v>       0.00462963 </v>
    <v>       0.00462963 </v>
    <v>       0.00462963 </v>
    <v>       0.00462963 </v>
    <v>       0.00462963 </v>
    <v>       0.00462963 </v>
    <v>       0.00462963 </v>
    <v>       0.00462963 </v>
    <v>       0.00462963 </v>
    <v>       0.00462963 </v>
    <v>       0.00462963 </v>
    <v>       0.00462963 </v>
    <v>       0.00462963 </v>
    <v>       0.00462963 </v>
    <v>       0.00462963 </v>
    <v>       0.00462963 </v>
    <v>       0.00462963 </v>
    <v>       0.00462963 </v>
    <v>       0.00462963 </v>
    <v>       0.00462963 </v>
    <v>       0.00462963 </v>
    <v>       0.00462963 </v>
    <v>       0.00462963 </v>
    <v>       0.00462963 </v>
    <v>       0.00462963 </v>
    <v>       0.00462963 </v>
    <v>       0.00462963 </v>
    <v>       0.00462963 </v>
    <v>       0.00462963 </v>
    <v>       0.00462963 </v>
    <v>       0.00462963 </v>
    <v>       0.00462963 </v>
    <v>       0.00462963 </v>
    <v>       0.00462963 </v>
    <v>       0.00462963 </v>
    <v>       0.00462963 </v>
    <v>       0.00462963 </v>
    <v>       0.00462963 </v>
    <v>       0.00462963 </v>
    <v>       0.00462963 </v>
    <v>       0.00462963 </v>
    <v>       0.00462963 </v>
    <v>       0.00462963 </v>
    <v>       0.00462963 </v>
    <v>       0.00462963 </v>
    <v>       0.00462963 </v>
    <v>       0.00462963 </v>
    <v>       0.00462963 </v>
    <v>       0.00462963 </v>
    <v>       0.00462963 </v>
    <v>       0.00462963 </v>
    <v>       0.00462963 </v>
    <v>       0.00231481 </v>
    <v>       0.00462963 </v>
    <v>       0.00462963 </v>
    <v>       0.00462963 </v>
    <v>       0.00462963 </v>
    <v>       0.00462963 </v>
    <v>       0.00231481 </v>
    <v>       0.00462963 </v>
    <v>       0.00462963 </v>
    <v>       0.00462963 </v>
    <v>       0.00462963 </v>
    <v>       0.00462963 </v>
    <v>       0.00462963 </v>
    <v>       0.00462963 </v>
    <v>       0.00462963 </v>
    <v>       0.00462963 </v>
    <v>       0.00462963 </v>
    <v>       0.00462963 </v>
    <v>       0.00462963 </v>
    <v>       0.00462963 </v>
    <v>       0.00462963 </v>
    <v>       0.00462963 </v>
    <v>       0.00462963 </v>
    <v>       0.00462963 </v>
    <v>       0.00462963 </v>
    <v>       0.00462963 </v>
    <v>       0.00462963 </v>
    <v>       0.00462963 </v>
    <v>       0.00462963 </v>
    <v>       0.00462963 </v>
    <v>       0.00462963 </v>
    <v>       0.00462963 </v>
    <v>       0.00462963 </v>
    <v>       0.00462963 </v>
    <v>       0.00462963 </v>
    <v>       0.00462963 </v>
    <v>       0.00462963 </v>
    <v>       0.00462963 </v>
    <v>       0.00462963 </v>
    <v>       0.00462963 </v>
    <v>       0.00462963 </v>
    <v>       0.00462963 </v>
    <v>       0.00462963 </v>
    <v>       0.00462963 </v>
    <v>       0.00462963 </v>
    <v>       0.00462963 </v>
    <v>       0.00462963 </v>
    <v>       0.00462963 </v>
    <v>       0.00462963 </v>
    <v>       0.00462963 </v>
    <v>       0.00462963 </v>
    <v>       0.00462963 </v>
    <v>       0.00462963 </v>
    <v>       0.00462963 </v>
    <v>       0.00462963 </v>
    <v>       0.00462963 </v>
    <v>       0.00462963 </v>
    <v>       0.00462963 </v>
    <v>       0.00462963 </v>
    <v>       0.00462963 </v>
    <v>       0.00462963 </v>
    <v>       0.00462963 </v>
    <v>       0.00462963 </v>
    <v>       0.00462963 </v>
    <v>       0.00462963 </v>
    <v>       0.00462963 </v>
    <v>       0.00462963 </v>
    <v>       0.00462963 </v>
    <v>       0.00462963 </v>
    <v>       0.00462963 </v>
    <v>       0.00462963 </v>
    <v>       0.00462963 </v>
    <v>       0.00462963 </v>
    <v>       0.00462963 </v>
    <v>       0.00462963 </v>
    <v>       0.00462963 </v>
    <v>       0.00462963 </v>
    <v>       0.00462963 </v>
    <v>       0.00462963 </v>
    <v>       0.00462963 </v>
    <v>       0.00462963 </v>
    <v>       0.00462963 </v>
    <v>       0.00462963 </v>
    <v>       0.00462963 </v>
    <v>       0.00462963 </v>
    <v>       0.00462963 </v>
    <v>       0.00462963 </v>
    <v>       0.00462963 </v>
    <v>       0.00462963 </v>
    <v>       0.00462963 </v>
    <v>       0.00462963 </v>
    <v>       0.00462963 </v>
    <v>       0.00462963 </v>
    <v>       0.00462963 </v>
    <v>       0.00462963 </v>
    <v>       0.00462963 </v>
    <v>       0.00462963 </v>
    <v>       0.00462963 </v>
    <v>       0.00462963 </v>
    <v>       0.00462963 </v>
    <v>       0.00462963 </v>
    <v>       0.00462963 </v>
    <v>       0.00462963 </v>
    <v>       0.00462963 </v>
    <v>       0.00462963 </v>
    <v>       0.00462963 </v>
    <v>       0.00462963 </v>
    <v>       0.00462963 </v>
    <v>       0.00462963 </v>
    <v>       0.00462963 </v>
    <v>       0.00462963 </v>
    <v>       0.00462963 </v>
    <v>       0.00462963 </v>
    <v>       0.00462963 </v>
    <v>       0.00462963 </v>
    <v>       0.00462963 </v>
    <v>       0.00462963 </v>
    <v>       0.00462963 </v>
    <v>       0.00462963 </v>
    <v>       0.00462963 </v>
    <v>       0.00462963 </v>
    <v>       0.00462963 </v>
    <v>       0.00462963 </v>
    <v>       0.00462963 </v>
    <v>       0.00462963 </v>
    <v>       0.00462963 </v>
    <v>       0.00462963 </v>
    <v>       0.00462963 </v>
    <v>       0.00462963 </v>
    <v>       0.00462963 </v>
    <v>       0.00462963 </v>
    <v>       0.00462963 </v>
    <v>       0.00462963 </v>
    <v>       0.00462963 </v>
    <v>       0.00462963 </v>
    <v>       0.00462963 </v>
    <v>       0.00462963 </v>
    <v>       0.00462963 </v>
    <v>       0.00462963 </v>
    <v>       0.00462963 </v>
    <v>       0.00462963 </v>
    <v>       0.00462963 </v>
    <v>       0.00462963 </v>
    <v>       0.00462963 </v>
    <v>       0.00462963 </v>
    <v>       0.00462963 </v>
    <v>       0.00462963 </v>
    <v>       0.00462963 </v>
    <v>       0.00462963 </v>
    <v>       0.00462963 </v>
    <v>       0.00462963 </v>
   </varray>
  </kpoints>
  <scstep>
   <time name="total">    2.03    2.04</time>
   <energy>
    <i name="e_fr_energy">    -35.03032202 </i>
    <i name="e_wo_entrp">    -35.03032202 </i>
    <i name="e_0_energy">    -35.03032202 </i>
   </energy>
  </scstep>
  <scstep>
   <time name="total">    1.75    1.76</time>
   <energy>
    <i name="e_fr_energy">    -36.72478540 </i>
    <i name="e_wo_entrp">    -36.72478540 </i>
    <i name="e_0_energy">    -36.72478540 </i>
   </energy>
  </scstep>
  <scstep>
   <time name="total">    1.77    1.78</time>
   <energy>
    <i name="e_fr_energy">    -35.91620780 </i>
    <i name="e_wo_entrp">    -35.91620780 </i>
    <i name="e_0_energy">    -35.91620780 </i>
   </energy>
  </scstep>
  <scstep>
   <time name="total">    1.77    1.77</time>
   <energy>
    <i name="e_fr_energy">    -36.66299247 </i>
    <i name="e_wo_entrp">    -36.66299247 </i>
    <i name="e_0_energy">    -36.66299247 </i>
   </energy>
  </scstep>
  <scstep>
   <time name="total">    1.78    1.78</time>
   <energy>
    <i name="e_fr_energy">    -37.02868678 </i>
    <i name="e_wo_entrp">    -37.02868678 </i>
    <i name="e_0_energy">    -37.02868678 </i>
   </energy>
  </scstep>
  <scstep>
   <time name="total">    1.79    1.79</time>
   <energy>
    <i name="e_fr_energy">    -37.24827498 </i>
    <i name="e_wo_entrp">    -37.24827498 </i>
    <i name="e_0_energy">    -37.24827498 </i>
   </energy>
  </scstep>
  <scstep>
   <time name="total">    1.80    1.80</time>
   <energy>
    <i name="e_fr_energy">    -37.29182196 </i>
    <i name="e_wo_entrp">    -37.29182196 </i>
    <i name="e_0_energy">    -37.29182196 </i>
   </energy>
  </scstep>
  <scstep>
   <time name="total">    1.77    1.77</time>
   <energy>
    <i name="e_fr_energy">    -37.34333212 </i>
    <i name="e_wo_entrp">    -37.34333212 </i>
    <i name="e_0_energy">    -37.34333212 </i>
   </energy>
  </scstep>
  <scstep>
   <time name="total">    1.77    1.77</time>
   <energy>
    <i name="e_fr_energy">    -37.37983696 </i>
    <i name="e_wo_entrp">    -37.37983696 </i>
    <i name="e_0_energy">    -37.37983696 </i>
   </energy>
  </scstep>
  <scstep>
   <time name="total">    1.79    1.79</time>
   <energy>
    <i name="e_fr_energy">    -37.38372931 </i>
    <i name="e_wo_entrp">    -37.38372931 </i>
    <i name="e_0_energy">    -37.38372931 </i>
   </energy>
  </scstep>
  <scstep>
   <time name="total">    1.79    1.79</time>
   <energy>
    <i name="e_fr_energy">    -37.38440835 </i>
    <i name="e_wo_entrp">    -37.38440835 </i>
    <i name="e_0_energy">    -37.38440835 </i>
   </energy>
  </scstep>
  <scstep>
   <time name="total">    1.78    1.79</time>
   <energy>
    <i name="e_fr_energy">    -37.38455928 </i>
    <i name="e_wo_entrp">    -37.38455928 </i>
    <i name="e_0_energy">    -37.38455928 </i>
   </energy>
  </scstep>
  <scstep>
   <time name="total">    1.79    1.79</time>
   <energy>
    <i name="e_fr_energy">    -37.38462853 </i>
    <i name="e_wo_entrp">    -37.38462853 </i>
    <i name="e_0_energy">    -37.38462853 </i>
   </energy>
  </scstep>
  <scstep>
   <time name="total">    1.59    1.60</time>
   <energy>
    <i name="e_fr_energy">    -37.38463318 </i>
    <i name="e_wo_entrp">    -37.38463318 </i>
    <i name="e_0_energy">    -37.38463318 </i>
   </energy>
  </scstep>
  <scstep>
   <time name="total">    1.36    1.37</time>
   <energy>
    <i name="e_fr_energy">    -37.38463125 </i>
    <i name="e_wo_entrp">    -37.38463125 </i>
    <i name="e_0_energy">    -37.38463125 </i>
   </energy>
  </scstep>
  <scstep>
   <time name="total">    1.32    1.32</time>
   <energy>
    <i name="e_fr_energy">    -37.38463149 </i>
    <i name="e_wo_entrp">    -37.38463149 </i>
    <i name="e_0_energy">    -37.38463149 </i>
   </energy>
  </scstep>
  <kpoints>
   <generation param="Gamma">
    <v type="int" name="divisions">      12       12        3 </v>
    <v name="usershift">      0.00000000       0.00000000       0.00000000 </v>
    <v name="genvec1">      0.08333333      -0.00000000       0.00000000 </v>
    <v name="genvec2">      0.00000000       0.08333333       0.00000000 </v>
    <v name="genvec3">      0.00000000       0.00000000       0.33333333 </v>
    <v name="shift">      0.00000000       0.00000000       0.00000000 </v>
   </generation>
   <varray name="kpointlist" >
    <v>       0.00000000       0.00000000       0.00000000 </v>
    <v>       0.08333333       0.00000000       0.00000000 </v>
    <v>       0.16666667       0.00000000       0.00000000 </v>
    <v>       0.25000000       0.00000000       0.00000000 </v>
    <v>       0.33333333       0.00000000       0.00000000 </v>
    <v>       0.41666667       0.00000000       0.00000000 </v>
    <v>       0.50000000       0.00000000       0.00000000 </v>
    <v>       0.00000000       0.08333333       0.00000000 </v>
    <v>       0.08333333       0.08333333       0.00000000 </v>
    <v>       0.16666667       0.08333333       0.00000000 </v>
    <v>       0.25000000       0.08333333       0.00000000 </v>
    <v>       0.33333333       0.08333333       0.00000000 </v>
    <v>       0.41666667       0.08333333       0.00000000 </v>
    <v>       0.50000000       0.08333333       0.00000000 </v>
    <v>      -0.41666667       0.08333333       0.00000000 </v>
    <v>      -0.33333333       0.08333333       0.00000000 </v>
    <v>      -0.25000000       0.08333333       0.00000000 </v>
    <v>      -0.16666667       0.08333333       0.00000000 </v>
    <v>      -0.08333333       0.08333333       0.00000000 </v>
    <v>       0.00000000       0.16666667       0.00000000 </v>
    <v>       0.08333333       0.16666667       0.00000000 </v>
    <v>       0.16666667       0.16666667       0.00000000 </v>
    <v>       0.25000000       0.16666667       0.00000000 </v>
    <v>       0.33333333       0.16666667       0.00000000 </v>
    <v>       0.41666667       0.16666667       0.00000000 </v>
    <v>       0.50000000       0.16666667       0.00000000 </v>
    <v>      -0.41666667       0.16666667       0.00000000 </v>
    <v>      -0.33333333       0.16666667       0.00000000 </v>
    <v>      -0.25000000       0.16666667       0.00000000 </v>
    <v>      -0.16666667       0.16666667       0.00000000 </v>
    <v>      -0.08333333       0.16666667       0.00000000 </v>
    <v>       0.00000000       0.25000000       0.00000000 </v>
    <v>       0.08333333       0.25000000       0.00000000 </v>
    <v>       0.16666667       0.25000000       0.00000000 </v>
    <v>       0.25000000       0.25000000       0.00000000 </v>
    <v>       0.33333333       0.25000000       0.00000000 </v>
    <v>       0.41666667       0.25000000       0.00000000 </v>
    <v>       0.50000000       0.25000000       0.00000000 </v>
    <v>      -0.41666667       0.25000000       0.00000000 </v>
    <v>      -0.33333333       0.25000000       0.00000000 </v>
    <v>      -0.25000000       0.25000000       0.00000000 </v>
    <v>      -0.16666667       0.25000000       0.00000000 </v>
    <v>      -0.08333333       0.25000000       0.00000000 </v>
    <v>       0.00000000       0.33333333       0.00000000 </v>
    <v>       0.08333333       0.33333333       0.00000000 </v>
    <v>       0.16666667       0.33333333       0.00000000 </v>
    <v>       0.25000000       0.33333333       0.00000000 </v>
    <v>       0.33333333       0.33333333       0.00000000 </v>
    <v>       0.41666667       0.33333333       0.00000000 </v>
    <v>       0.50000000       0.33333333       0.00000000 </v>
    <v>      -0.41666667       0.33333333       0.00000000 </v>
    <v>      -0.33333333       0.33333333       0.00000000 </v>
    <v>      -0.25000000       0.33333333       0.00000000 </v>
    <v>      -0.16666667       0.33333333       0.00000000 </v>
    <v>      -0.08333333       0.33333333       0.00000000 </v>
[...]
      </set>
      <set comment="kpoint 120">
       <r>   -7.1370    1.0000 </r>
       <r>   -7.0425    1.0000 </r>
       <r>   -6.5473    1.0000 </r>
       <r>   -6.0492    1.0000 </r>
       <r>   -5.5229    1.0000 </r>
       <r>   -3.1149    1.0000 </r>
       <r>   -2.5492    1.0000 </r>
       <r>   -1.6416    1.0000 </r>
       <r>   -0.5674    1.0000 </r>
       <r>    2.3937    1.0000 </r>
       <r>    2.5637    1.0000 </r>
       <r>    2.6716    1.0000 </r>
       <r>    2.8089    1.0000 </r>
       <r>    3.1706    1.0000 </r>
       <r>    3.4428    1.0000 </r>
       <r>    3.5082    1.0000 </r>
       <r>    3.5696    1.0000 </r>
       <r>    3.8442    1.0000 </r>
       <r>    4.0185    1.0000 </r>
       <r>    4.1147    1.0000 </r>
       <r>    4.7608    1.0000 </r>
       <r>    4.9025    1.0000 </r>
       <r>    5.0154    1.0000 </r>
       <r>    5.1607    1.0000 </r>
       <r>    6.1334    0.0000 </r>
       <r>    6.3552    0.0000 </r>
       <r>    6.6415    0.0000 </r>
       <r>    6.6947    0.0000 </r>
       <r>    6.9816    0.0000 </r>
       <r>    7.1779    0.0000 </r>
       <r>    7.5106    0.0000 </r>
       <r>    7.8298    0.0000 </r>
       <r>    8.0008    0.0000 </r>
       <r>    8.4872    0.0000 </r>
       <r>    8.8352    0.0000 </r>
       <r>    8.9220    0.0000 </r>
       <r>   10.1906    0.0000 </r>
       <r>   10.2458    0.0000 </r>
       <r>   10.4877    0.0000 </r>
       <r>   10.7831    0.0000 </r>
      </set>
      <set comment="kpoint 121">
       <r>   -7.2561    1.0000 </r>
       <r>   -7.1605    1.0000 </r>
       <r>   -6.6540    1.0000 </r>
       <r>   -6.1376    1.0000 </r>
       <r>   -5.5843    1.0000 </r>
       <r>   -3.1534    1.0000 </r>
       <r>   -2.4854    1.0000 </r>
       <r>   -1.5171    1.0000 </r>
       <r>   -0.2500    1.0000 </r>
       <r>    2.8018    1.0000 </r>
       <r>    3.0846    1.0000 </r>
       <r>    3.2075    1.0000 </r>
       <r>    3.3762    1.0000 </r>
       <r>    3.5409    1.0000 </r>
       <r>    3.5448    1.0000 </r>
       <r>    3.7745    1.0000 </r>
       <r>    3.8214    1.0000 </r>
       <r>    3.9706    1.0000 </r>
       <r>    4.1355    1.0000 </r>
       <r>    4.4044    1.0000 </r>
       <r>    4.5137    1.0000 </r>
       <r>    4.7988    1.0000 </r>
       <r>    5.0174    1.0000 </r>
       <r>    5.3404    1.0000 </r>
       <r>    6.0209    0.0000 </r>
       <r>    6.2106    0.0000 </r>
       <r>    6.4026    0.0000 </r>
       <r>    6.5945    0.0000 </r>
       <r>    6.6427    0.0000 </r>
       <r>    6.7299    0.0000 </r>
       <r>    7.3989    0.0000 </r>
       <r>    7.4162    0.0000 </r>
       <r>    7.6525    0.0000 </r>
       <r>    8.3856    0.0000 </r>
       <r>    8.4604    0.0000 </r>
       <r>    8.6102    0.0000 </r>
       <r>   10.3775    0.0000 </r>
       <r>   10.6112    0.0000 </r>
       <r>   10.7565    0.0000 </r>
       <r>   10.9147    0.0000 </r>
      </set>
     </set>
    </set>
   </array>
  </eigenvalues>
  <separator name="orbital magnetization" >
   <v name="MAGDIPOLOUT">      0.00000000      0.00000000      0.00000000</v>
  </separator>
  <dos>
   <i name="efermi">      5.71017279 </i>
   <total>
    <array>
     <dimension dim="1">gridpoints</dimension>
     <dimension dim="2">spin</dimension>
     <field>energy</field>
     <field>total</field>
     <field>integrated</field>
     <set>
      <set comment="spin 1">
       <r>    -8.3345     0.0000     0.0000 </r>
       <r>    -8.2621     0.0000     0.0000 </r>
       <r>    -8.1897     0.0000     0.0000 </r>
       <r>    -8.1173     0.0000     0.0000 </r>
       <r>    -8.0450     0.0000     0.0000 </r>
       <r>    -7.9726     0.0000     0.0000 </r>
       <r>    -7.9002     0.0000     0.0000 </r>
       <r>    -7.8278     0.0000     0.0000 </r>
       <r>    -7.7554     0.0000     0.0000 </r>
       <r>    -7.6830     0.0000     0.0000 </r>
       <r>    -7.6106     0.0000     0.0000 </r>
       <r>    -7.5382     0.0000     0.0000 </r>
       <r>    -7.4658     0.0000     0.0000 </r>
       <r>    -7.3934     0.0085     0.0006 </r>
       <r>    -7.3211     0.1870     0.0142 </r>
       <r>    -7.2487     0.8044     0.0724 </r>
       <r>    -7.1763     0.9877     0.1439 </r>
       <r>    -7.1039     1.8431     0.2773 </r>
       <r>    -7.0315     1.6441     0.3963 </r>
       <r>    -6.9591     1.4525     0.5015 </r>
       <r>    -6.8867     2.0739     0.6516 </r>
       <r>    -6.8143     1.7761     0.7802 </r>
       <r>    -6.7419     2.1915     0.9388 </r>
       <r>    -6.6696     1.8168     1.0703 </r>
       <r>    -6.5972     2.8218     1.2746 </r>
       <r>    -6.5248     3.3949     1.5203 </r>
       <r>    -6.4524     3.0646     1.7422 </r>
       <r>    -6.3800     2.5591     1.9274 </r>
       <r>    -6.3076     2.5387     2.1112 </r>
       <r>    -6.2352     3.0541     2.3323 </r>
       <r>    -6.1628     3.9168     2.6158 </r>
       <r>    -6.0904     4.8114     2.9641 </r>
       <r>    -6.0180     4.4391     3.2855 </r>
       <r>    -5.9457     3.0583     3.5069 </r>
       <r>    -5.8733     4.8927     3.8611 </r>
       <r>    -5.8009     6.9394     4.3634 </r>
       <r>    -5.7285     7.1658     4.8821 </r>
       <r>    -5.6561     5.8823     5.3079 </r>
       <r>    -5.5837     7.0005     5.8147 </r>
       <r>    -5.5113    12.0170     6.6846 </r>
       <r>    -5.4389    11.4788     7.5155 </r>
       <r>    -5.3665    10.2456     8.2572 </r>
       <r>    -5.2942    11.5568     9.0938 </r>
       <r>    -5.2218     9.3891     9.7735 </r>
       <r>    -5.1494     2.9986     9.9906 </r>
       <r>    -5.0770     0.1301    10.0000 </r>
       <r>    -5.0046     0.0004    10.0000 </r>
       <r>    -4.9322     0.0000    10.0000 </r>
       <r>    -4.8598     0.0000    10.0000 </r>
       <r>    -4.7874     0.0000    10.0000 </r>
       <r>    -4.7150     0.0000    10.0000 </r>
       <r>    -4.6426     0.0000    10.0000 </r>
       <r>    -4.5703     0.0000    10.0000 </r>
       <r>    -4.4979     0.0000    10.0000 </r>
       <r>    -4.4255     0.0000    10.0000 </r>
       <r>    -4.3531     0.0000    10.0000 </r>
       <r>    -4.2807     0.0000    10.0000 </r>
       <r>    -4.2083     0.0000    10.0000 </r>
       <r>    -4.1359     0.0000    10.0000 </r>
       <r>    -4.0635     0.0086    10.0006 </r>
       <r>    -3.9911     0.3024    10.0225 </r>
       <r>    -3.9188     1.0906    10.1015 </r>
       <r>    -3.8464     3.3025    10.3405 </r>
       <r>    -3.7740     3.3104    10.5802 </r>
       <r>    -3.7016     3.5047    10.8339 </r>
       <r>    -3.6292     5.4121    11.2257 </r>
       <r>    -3.5568     4.3011    11.5370 </r>
       <r>    -3.4844     1.7897    11.6666 </r>
       <r>    -3.4120     2.1695    11.8236 </r>
       <r>    -3.3396     3.1406    12.0510 </r>
       <r>    -3.2672     3.3055    12.2902 </r>
       <r>    -3.1949     2.2238    12.4512 </r>
       <r>    -3.1225     4.2012    12.7553 </r>
       <r>    -3.0501     4.3889    13.0731 </r>
       <r>    -2.9777     3.2682    13.3096 </r>
       <r>    -2.9053     2.4001    13.4834 </r>
       <r>    -2.8329     1.9833    13.6269 </r>
       <r>    -2.7605     4.7818    13.9731 </r>
       <r>    -2.6881     5.4327    14.3664 </r>
       <r>    -2.6157     3.3200    14.6067 </r>
       <r>    -2.5434     4.0795    14.9020 </r>
       <r>    -2.4710     4.0485    15.1951 </r>
       <r>    -2.3986     2.4383    15.3716 </r>
       <r>    -2.3262     3.0023    15.5889 </r>
       <r>    -2.2538     2.3973    15.7625 </r>
       <r>    -2.1814     2.2538    15.9256 </r>
       <r>    -2.1090     3.0230    16.1445 </r>
       <r>    -2.0366     3.3784    16.3890 </r>
       <r>    -1.9642     3.5921    16.6490 </r>
       <r>    -1.8918     1.9924    16.7933 </r>
       <r>    -1.8195     1.2344    16.8826 </r>
       <r>    -1.7471     0.7709    16.9384 </r>
       <r>    -1.6747     1.5062    17.0475 </r>
       <r>    -1.6023     3.0161    17.2658 </r>
       <r>    -1.5299     1.8419    17.3991 </r>
       <r>    -1.4575     0.6586    17.4468 </r>
       <r>    -1.3851     0.3111    17.4693 </r>
       <r>    -1.3127     0.3720    17.4963 </r>
       <r>    -1.2403     0.8333    17.5566 </r>
       <r>    -1.1680     0.2123    17.5720 </r>
       <r>    -1.0956     0.9802    17.6429 </r>
       <r>    -1.0232     1.2150    17.7309 </r>
       <r>    -0.9508     0.0724    17.7361 </r>
       <r>    -0.8784     0.0001    17.7361 </r>
       <r>    -0.8060     0.0076    17.7367 </r>
       <r>    -0.7336     0.3491    17.7619 </r>
       <r>    -0.6612     0.7293    17.8147 </r>
       <r>    -0.5888     0.5064    17.8514 </r>
       <r>    -0.5165     0.6522    17.8986 </r>
       <r>    -0.4441     0.0576    17.9028 </r>
       <r>    -0.3717     0.0106    17.9035 </r>
       <r>    -0.2993     0.2724    17.9233 </r>
       <r>    -0.2269     0.6870    17.9730 </r>
       <r>    -0.1545     0.2096    17.9882 </r>
       <r>    -0.0821     0.0926    17.9949 </r>
       <r>    -0.0097     0.0677    17.9998 </r>
       <r>     0.0627     0.0033    18.0000 </r>
       <r>     0.1351     0.0063    18.0005 </r>
       <r>     0.2074     0.2086    18.0156 </r>
       <r>     0.2798     1.0229    18.0896 </r>
       <r>     0.3522     2.1621    18.2461 </r>
       <r>     0.4246     1.4377    18.3502 </r>
       <r>     0.4970     1.7836    18.4793 </r>
       <r>     0.5694     2.7316    18.6770 </r>
       <r>     0.6418     3.0032    18.8945 </r>
       <r>     0.7142     2.8583    19.1014 </r>
       <r>     0.7866     2.5047    19.2827 </r>
       <r>     0.8589     5.8539    19.7064 </r>
       <r>     0.9313     5.1867    20.0819 </r>
       <r>     1.0037     4.1463    20.3821 </r>
       <r>     1.0761     3.4153    20.6293 </r>
       <r>     1.1485     2.1021    20.7815 </r>
       <r>     1.2209     3.1515    21.0096 </r>
       <r>     1.2933     4.7975    21.3569 </r>
       <r>     1.3657     5.0246    21.7206 </r>
       <r>     1.4381     5.2837    22.1031 </r>
       <r>     1.5105     4.1549    22.4039 </r>
       <r>     1.5828     4.4348    22.7249 </r>
       <r>     1.6552     5.5934    23.1298 </r>
       <r>     1.7276     6.8529    23.6259 </r>
       <r>     1.8000     7.3263    24.1562 </r>
       <r>     1.8724     6.8119    24.6493 </r>
       <r>     1.9448     7.8584    25.2182 </r>
       <r>     2.0172     5.7150    25.6319 </r>
       <r>     2.0896     7.0404    26.1415 </r>
       <r>     2.1620     9.0797    26.7988 </r>
       <r>     2.2343     8.6914    27.4280 </r>
       <r>     2.3067     8.2965    28.0286 </r>
       <r>     2.3791     9.1909    28.6939 </r>
       <r>     2.4515     6.1199    29.1369 </r>
       <r>     2.5239     5.3891    29.5270 </r>
       <r>     2.5963     6.6840    30.0109 </r>
       <r>     2.6687     8.1091    30.5979 </r>
       <r>     2.7411     8.1264    31.1861 </r>
       <r>     2.8135     6.9685    31.6906 </r>
       <r>     2.8859     7.1926    32.2113 </r>
       <r>     2.9582     8.2522    32.8086 </r>
       <r>     3.0306     7.0571    33.3195 </r>
       <r>     3.1030     7.4221    33.8568 </r>
       <r>     3.1754     8.2241    34.4521 </r>
       <r>     3.2478     8.4162    35.0613 </r>
       <r>     3.3202     6.0213    35.4972 </r>
       <r>     3.3926     5.8838    35.9232 </r>
       <r>     3.4650     7.2503    36.4480 </r>
       <r>     3.5374     7.1940    36.9688 </r>
       <r>     3.6097     6.6217    37.4481 </r>
       <r>     3.6821     6.6625    37.9304 </r>
       <r>     3.7545     7.5258    38.4752 </r>
       <r>     3.8269     7.2560    39.0005 </r>
       <r>     3.8993     6.8384    39.4955 </r>
       <r>     3.9717     6.6941    39.9801 </r>
       <r>     4.0441     6.6020    40.4580 </r>
       <r>     4.1165     6.5756    40.9340 </r>
       <r>     4.1889     6.3792    41.3958 </r>
       <r>     4.2613     5.6274    41.8031 </r>
       <r>     4.3336     6.4180    42.2677 </r>
       <r>     4.4060     7.4588    42.8077 </r>
       <r>     4.4784     6.9564    43.3112 </r>
       <r>     4.5508     5.7517    43.7276 </r>
       <r>     4.6232     3.1761    43.9575 </r>
       <r>     4.6956     4.5297    44.2854 </r>
       <r>     4.7680     7.3067    44.8143 </r>
       <r>     4.8404     6.5073    45.2854 </r>
       <r>     4.9128     9.0143    45.9379 </r>
       <r>     4.9851     9.2654    46.6087 </r>
       <r>     5.0575     7.0816    47.1213 </r>
       <r>     5.1299     4.1255    47.4199 </r>
       <r>     5.2023     4.2193    47.7254 </r>
       <r>     5.2747     2.3359    47.8945 </r>
       <r>     5.3471     0.9544    47.9636 </r>
       <r>     5.4195     0.4167    47.9937 </r>
       <r>     5.4919     0.0792    47.9994 </r>
       <r>     5.5643     0.0076    48.0000 </r>
       <r>     5.6367     0.0000    48.0000 </r>
       <r>     5.7090     0.0000    48.0000 </r>
       <r>     5.7814     0.0000    48.0000 </r>
       <r>     5.8538     0.0001    48.0000 </r>
       <r>     5.9262     0.0140    48.0010 </r>
       <r>     5.9986     0.1490    48.0118 </r>
       <r>     6.0710     0.8905    48.0763 </r>
       <r>     6.1434     1.8276    48.2086 </r>
       <r>     6.2158     3.7988    48.4836 </r>
       <r>     6.2882     3.9996    48.7731 </r>
       <r>     6.3605     5.1471    49.1457 </r>
       <r>     6.4329     6.7814    49.6366 </r>
       <r>     6.5053     7.8938    50.2080 </r>
       <r>     6.5777     9.6311    50.9052 </r>
       <r>     6.6501     8.5020    51.5207 </r>
       <r>     6.7225    10.1933    52.2586 </r>
       <r>     6.7949     9.8017    52.9681 </r>
       <r>     6.8673     7.0166    53.4760 </r>
       <r>     6.9397     6.9528    53.9793 </r>
       <r>     7.0121     8.0330    54.5608 </r>
       <r>     7.0844     6.3067    55.0174 </r>
       <r>     7.1568     5.9979    55.4516 </r>
       <r>     7.2292     6.8455    55.9471 </r>
       <r>     7.3016     4.2280    56.2532 </r>
       <r>     7.3740     5.4919    56.6507 </r>
       <r>     7.4464     6.9288    57.1523 </r>
       <r>     7.5188     6.2921    57.6078 </r>
       <r>     7.5912     4.4904    57.9328 </r>
       <r>     7.6636     6.9272    58.4343 </r>
       <r>     7.7359     8.5823    59.0556 </r>
       <r>     7.8083     5.7004    59.4682 </r>
       <r>     7.8807     3.2324    59.7022 </r>
       <r>     7.9531     4.7020    60.0426 </r>
       <r>     8.0255     5.0832    60.4105 </r>
       <r>     8.0979     3.6645    60.6758 </r>
       <r>     8.1703     5.5177    61.0752 </r>
       <r>     8.2427     7.6890    61.6318 </r>
       <r>     8.3151     5.6651    62.0419 </r>
       <r>     8.3875     4.1462    62.3421 </r>
       <r>     8.4598     5.1172    62.7125 </r>
       <r>     8.5322     6.5576    63.1872 </r>
       <r>     8.6046     5.9788    63.6200 </r>
       <r>     8.6770     4.0566    63.9137 </r>
       <r>     8.7494     3.3675    64.1574 </r>
       <r>     8.8218     6.9577    64.6611 </r>
       <r>     8.8942     8.6156    65.2848 </r>
       <r>     8.9666     6.8821    65.7830 </r>
       <r>     9.0390     3.9246    66.0671 </r>
       <r>     9.1113     3.9874    66.3557 </r>
       <r>     9.1837     5.3940    66.7462 </r>
       <r>     9.2561     6.8758    67.2439 </r>
       <r>     9.3285     7.5173    67.7881 </r>
       <r>     9.4009     6.0819    68.2283 </r>
       <r>     9.4733     4.2460    68.5357 </r>
       <r>     9.5457     3.0819    68.7588 </r>
       <r>     9.6181     4.8303    69.1085 </r>
       <r>     9.6905     6.2242    69.5590 </r>
       <r>     9.7629     7.3503    70.0911 </r>
       <r>     9.8352     6.4444    70.5576 </r>
       <r>     9.9076     6.0884    70.9984 </r>
       <r>     9.9800     6.2950    71.4541 </r>
       <r>    10.0524     6.3855    71.9163 </r>
       <r>    10.1248     6.1081    72.3585 </r>
       <r>    10.1972     6.5384    72.8318 </r>
       <r>    10.2696     6.4104    73.2958 </r>
       <r>    10.3420     6.9311    73.7976 </r>
       <r>    10.4144     7.3325    74.3284 </r>
       <r>    10.4867     5.5317    74.7288 </r>
       <r>    10.5591     4.5894    75.0610 </r>
       <r>    10.6315     5.6331    75.4688 </r>
       <r>    10.7039     6.8555    75.9651 </r>
       <r>    10.7763     7.7023    76.5226 </r>
       <r>    10.8487     5.3029    76.9065 </r>
       <r>    10.9211     5.5130    77.3056 </r>
       <r>    10.9935     4.5216    77.6329 </r>
       <r>    11.0659     3.3781    77.8774 </r>
       <r>    11.1382     3.7556    78.1493 </r>
       <r>    11.2106     3.1371    78.3764 </r>
       <r>    11.2830     2.4960    78.5571 </r>
       <r>    11.3554     2.3699    78.7286 </r>
       <r>    11.4278     2.8625    78.9359 </r>
       <r>    11.5002     2.5483    79.1203 </r>
       <r>    11.5726     2.5802    79.3071 </r>
       <r>    11.6450     3.2960    79.5457 </r>
       <r>    11.7174     0.9517    79.6146 </r>
       <r>    11.7898     1.0954    79.6939 </r>
       <r>    11.8621     1.6658    79.8145 </r>
       <r>    11.9345     0.7379    79.8679 </r>
       <r>    12.0069     0.3037    79.8899 </r>
       <r>    12.0793     0.1733    79.9024 </r>
       <r>    12.1517     0.1508    79.9133 </r>
       <r>    12.2241     0.5216    79.9511 </r>
       <r>    12.2965     0.1254    79.9602 </r>
       <r>    12.3689     0.2302    79.9768 </r>
       <r>    12.4413     0.2882    79.9977 </r>
       <r>    12.5136     0.0318    80.0000 </r>
       <r>    12.5860     0.0001    80.0000 </r>
       <r>    12.6584     0.0000    80.0000 </r>
       <r>    12.7308     0.0000    80.0000 </r>
       <r>    12.8032     0.0000    80.0000 </r>
       <r>    12.8756     0.0000    80.0000 </r>
       <r>    12.9480     0.0000    80.0000 </r>
       <r>    13.0204     0.0000    80.0000 </r>
       <r>    13.0928     0.0000    80.0000 </r>
       <r>    13.1652     0.0000    80.0000 </r>
       <r>    13.2375     0.0000    80.0000 </r>
       <r>    13.3099     0.0000    80.0000 </r>
       <r>    13.3823     0.0000    80.0000 </r>
      </set>
     </set>
    </array>
   </total>
  </dos>
 </calculation>
 <structure name="finalpos" >
  <crystal>
   <varray name="basis" >
    <v>       4.31254270       0.00000000       0.00000000 </v>
    <v>       2.15627135       3.73477153       0.00000000 </v>
    <v>       0.00000000       0.00000000      17.48757780 </v>
   </varray>
   <i name="volume">    281.66125353 </i>
   <varray name="rec_basis" >
    <v>       0.23188176      -0.13387700       0.00000000 </v>
    <v>       0.00000000       0.26775400       0.00000000 </v>
    <v>       0.00000000       0.00000000       0.05718345 </v>
   </varray>
  </crystal>
  <varray name="positions" >
   <v>       0.35481028       0.35481028       0.09904704 </v>
   <v>       0.68763117       0.68763117       0.90076106 </v>
   <v>       0.01296207       0.01296207       0.31161209 </v>
   <v>       0.01265014       0.01265014       0.68816595 </v>
   <v>       0.00000000       0.00000000       0.00000000 </v>
   <v>       0.66901396       0.66901396       0.19591118 </v>
   <v>       0.33622487       0.33622487       0.40934126 </v>
   <v>       0.66847911       0.66847911       0.59043195 </v>
   <v>       0.33392918       0.33392918       0.80400318 </v>
  </varray>
  <varray name="selective"  type="logical" >
   <v type="logical" >  T  T  T </v>
   <v type="logical" >  T  T  T </v>
   <v type="logical" >  T  T  T </v>
   <v type="logical" >  T  T  T </v>
   <v type="logical" >  F  F  F </v>
   <v type="logical" >  T  T  T </v>
   <v type="logical" >  T  T  T </v>
   <v type="logical" >  T  T  T </v>
   <v type="logical" >  T  T  T </v>
  </varray>
  <nose>
   <v>      -3.00000000       0.00000000       0.00010000       0.00010000 </v>
  </nose>
 </structure>
</modeling>
