# Converted from POSCAR to lammps format

18522 atoms
2 atom types

0.000000   88.638094   xlo xhi
0.000000   76.762841   ylo yhi
0.000000   77.115508   zlo zhi

 44.319047    0.000000    0.000000   xy xz yz

Atoms

   1  1      0.000000 0.000000 0.000000
   2  1      75.975509 48.738312 58.754673
   3  1      78.085940 49.956769 62.426840
   4  1      73.865078 47.519854 66.099007
   5  1      75.975509 48.738312 69.771174
   6  1      78.085940 49.956769 73.443341
   7  1      75.975509 51.175227 0.000000
   8  1      78.085940 52.393685 3.672167
   9  1      80.196370 53.612143 7.344334
  10  1      75.975509 51.175227 11.016501
  11  1      73.865078 47.519854 55.082506
  12  1      78.085940 52.393685 14.688668
  13  1      75.975509 51.175227 22.033002
  14  1      78.085940 52.393685 25.705169
  15  1      80.196370 53.612143 29.377336
  16  1      75.975509 51.175227 33.049503
  17  1      78.085940 52.393685 36.721670
  18  1      80.196370 53.612143 40.393837
  19  1      75.975509 51.175227 44.066004
  20  1      78.085940 52.393685 47.738171
  21  1      80.196370 53.612143 51.410338
  22  1      80.196370 53.612143 18.360835
  23  1      75.975509 51.175227 55.082506
  24  1      78.085940 49.956769 51.410338
  25  1      73.865078 47.519854 44.066004
  26  1      73.865078 45.082938 47.738171
  27  1      75.975509 46.301396 51.410338
  28  1      71.754647 43.864480 55.082506
  29  1      73.865078 45.082938 58.754673
  30  1      75.975509 46.301396 62.426840
  31  1      71.754647 43.864480 66.099007
  32  1      73.865078 45.082938 69.771174
  33  1      75.975509 46.301396 73.443341
  34  1      73.865078 47.519854 0.000000
  35  1      75.975509 48.738312 47.738171
  36  1      75.975509 48.738312 3.672167
  37  1      73.865078 47.519854 11.016501
  38  1      75.975509 48.738312 14.688668
  39  1      78.085940 49.956769 18.360835
  40  1      73.865078 47.519854 22.033002
  41  1      75.975509 48.738312 25.705169
  42  1      78.085940 49.956769 29.377336
  43  1      73.865078 47.519854 33.049503
  44  1      75.975509 48.738312 36.721670
  45  1      78.085940 49.956769 40.393837
  46  1      78.085940 49.956769 7.344334
  47  1      71.754647 43.864480 44.066004
  48  1      78.085940 52.393685 58.754673
  49  1      75.975509 51.175227 66.099007
  50  1      82.306801 59.704432 3.672167
  51  1      84.417232 60.922890 7.344334
  52  1      80.196370 58.485974 11.016501
  53  1      82.306801 59.704432 14.688668
  54  1      84.417232 60.922890 18.360835
  55  1      80.196370 58.485974 22.033002
  56  1      82.306801 59.704432 25.705169
  57  1      84.417232 60.922890 29.377336
  58  1      80.196370 58.485974 33.049503
  59  1      80.196370 58.485974 0.000000
  60  1      82.306801 59.704432 36.721670
  61  1      80.196370 58.485974 44.066004
  62  1      82.306801 59.704432 47.738171
  63  1      84.417232 60.922890 51.410338
  64  1      80.196370 58.485974 55.082506
  65  1      82.306801 59.704432 58.754673
  66  1      84.417232 60.922890 62.426840
  67  1      80.196370 58.485974 66.099007
  68  1      82.306801 59.704432 69.771174
  69  1      84.417232 60.922890 73.443341
  70  1      84.417232 60.922890 40.393837
  71  1      80.196370 53.612143 62.426840
  72  1      82.306801 57.267516 73.443341
  73  1      78.085940 54.830601 66.099007
  74  1      78.085940 52.393685 69.771174
  75  1      80.196370 53.612143 73.443341
  76  1      78.085940 54.830601 0.000000
  77  1      80.196370 56.049058 3.672167
  78  1      82.306801 57.267516 7.344334
  79  1      78.085940 54.830601 11.016501
  80  1      80.196370 56.049058 14.688668
  81  1      82.306801 57.267516 18.360835
  82  1      78.085940 54.830601 22.033002
  83  1      80.196370 56.049058 69.771174
  84  1      80.196370 56.049058 25.705169
  85  1      78.085940 54.830601 33.049503
  86  1      80.196370 56.049058 36.721670
  87  1      82.306801 57.267516 40.393837
  88  1      78.085940 54.830601 44.066004
  89  1      80.196370 56.049058 47.738171
  90  1      82.306801 57.267516 51.410338
  91  1      78.085940 54.830601 55.082506
  92  1      80.196370 56.049058 58.754673
  93  1      82.306801 57.267516 62.426840
  94  1      82.306801 57.267516 29.377336
  95  1      82.306801 62.141347 0.000000
  96  1      75.975509 46.301396 40.393837
  97  1      71.754647 43.864480 33.049503
  98  1      67.533786 34.116818 14.688668
  99  1      69.644216 35.335276 18.360835
 100  1      65.423355 32.898360 22.033002
 101  1      67.533786 34.116818 25.705169
 102  1      69.644216 35.335276 29.377336
 103  1      65.423355 32.898360 33.049503
 104  1      67.533786 34.116818 36.721670
 105  1      69.644216 35.335276 40.393837
 106  1      65.423355 32.898360 44.066004
 107  1      65.423355 32.898360 11.016501
 108  1      67.533786 34.116818 47.738171
 109  1      65.423355 32.898360 55.082506
 110  1      67.533786 34.116818 58.754673
 111  1      69.644216 35.335276 62.426840
 112  1      65.423355 32.898360 66.099007
 113  1      67.533786 34.116818 69.771174
 114  1      69.644216 35.335276 73.443341
 115  1      67.533786 36.553734 0.000000
 116  1      69.644216 37.772192 3.672167
 117  1      71.754647 38.990649 7.344334
 118  1      69.644216 35.335276 51.410338
 119  1      67.533786 36.553734 11.016501
 120  1      69.644216 35.335276 7.344334
 121  1      65.423355 32.898360 0.000000
 122  1      65.423355 30.461445 3.672167
 123  1      67.533786 31.679903 7.344334
 124  1      63.312924 29.242987 11.016501
 125  1      65.423355 30.461445 14.688668
 126  1      67.533786 31.679903 18.360835
 127  1      63.312924 29.242987 22.033002
 128  1      65.423355 30.461445 25.705169
 129  1      67.533786 31.679903 29.377336
 130  1      63.312924 29.242987 33.049503
 131  1      67.533786 34.116818 3.672167
 132  1      65.423355 30.461445 36.721670
 133  1      63.312924 29.242987 44.066004
 134  1      65.423355 30.461445 47.738171
 135  1      67.533786 31.679903 51.410338
 136  1      63.312924 29.242987 55.082506
 137  1      65.423355 30.461445 58.754673
 138  1      67.533786 31.679903 62.426840
 139  1      63.312924 29.242987 66.099007
 140  1      65.423355 30.461445 69.771174
 141  1      67.533786 31.679903 73.443341
 142  1      67.533786 31.679903 40.393837
 143  1      73.865078 45.082938 36.721670
 144  1      69.644216 37.772192 14.688668
 145  1      67.533786 36.553734 22.033002
 146  1      71.754647 41.427565 36.721670
 147  1      73.865078 42.646023 40.393837
 148  1      69.644216 40.209107 44.066004
 149  1      71.754647 41.427565 47.738171
 150  1      73.865078 42.646023 51.410338
 151  1      69.644216 40.209107 55.082506
 152  1      71.754647 41.427565 58.754673
 153  1      73.865078 42.646023 62.426840
 154  1      69.644216 40.209107 66.099007
 155  1      69.644216 40.209107 33.049503
 156  1      71.754647 41.427565 69.771174
 157  1      71.754647 43.864480 0.000000
 158  1      73.865078 45.082938 3.672167
 159  1      75.975509 46.301396 7.344334
 160  1      71.754647 43.864480 11.016501
 161  1      73.865078 45.082938 14.688668
 162  1      75.975509 46.301396 18.360835
 163  1      71.754647 43.864480 22.033002
 164  1      73.865078 45.082938 25.705169
 165  1      75.975509 46.301396 29.377336
 166  1      73.865078 42.646023 73.443341
 167  1      71.754647 38.990649 18.360835
 168  1      73.865078 42.646023 29.377336
 169  1      69.644216 40.209107 22.033002
 170  1      69.644216 37.772192 25.705169
 171  1      71.754647 38.990649 29.377336
 172  1      67.533786 36.553734 33.049503
 173  1      69.644216 37.772192 36.721670
 174  1      71.754647 38.990649 40.393837
 175  1      67.533786 36.553734 44.066004
 176  1      69.644216 37.772192 47.738171
 177  1      71.754647 38.990649 51.410338
 178  1      67.533786 36.553734 55.082506
 179  1      71.754647 41.427565 25.705169
 180  1      69.644216 37.772192 58.754673
 181  1      67.533786 36.553734 66.099007
 182  1      69.644216 37.772192 69.771174
 183  1      71.754647 38.990649 73.443341
 184  1      69.644216 40.209107 0.000000
 185  1      71.754647 41.427565 3.672167
 186  1      73.865078 42.646023 7.344334
 187  1      69.644216 40.209107 11.016501
 188  1      71.754647 41.427565 14.688668
 189  1      73.865078 42.646023 18.360835
 190  1      71.754647 38.990649 62.426840
 191  1      84.417232 63.359805 3.672167
 192  1      86.527663 64.578263 7.344334
 193  1      82.306801 62.141347 11.016501
 194  1      56.981632 6.092289 73.443341
 195  1      54.871201 7.310747 0.000000
 196  1      56.981632 8.529205 3.672167
 197  1      59.092062 9.747662 7.344334
 198  1      54.871201 7.310747 11.016501
 199  1      56.981632 8.529205 14.688668
 200  1      59.092062 9.747662 18.360835
 201  1      54.871201 7.310747 22.033002
 202  1      56.981632 8.529205 25.705169
 203  1      54.871201 4.873831 69.771174
 204  1      59.092062 9.747662 29.377336
 205  1      56.981632 8.529205 36.721670
 206  1      59.092062 9.747662 40.393837
 207  1      54.871201 7.310747 44.066004
 208  1      56.981632 8.529205 47.738171
 209  1      59.092062 9.747662 51.410338
 210  1      54.871201 7.310747 55.082506
 211  1      56.981632 8.529205 58.754673
 212  1      59.092062 9.747662 62.426840
 213  1      54.871201 7.310747 66.099007
 214  1      54.871201 7.310747 33.049503
 215  1      56.981632 8.529205 69.771174
 216  1      52.760770 3.655373 66.099007
 217  1      54.871201 4.873831 58.754673
 218  1      54.871201 2.436916 62.426840
 219  1      50.650339 0.000000 66.099007
 220  1      52.760770 1.218458 69.771174
 221  1      54.871201 2.436916 73.443341
 222  1      52.760770 3.655373 0.000000
 223  1      54.871201 4.873831 3.672167
 224  1      56.981632 6.092289 7.344334
 225  1      52.760770 3.655373 11.016501
 226  1      54.871201 4.873831 14.688668
 227  1      56.981632 6.092289 62.426840
 228  1      56.981632 6.092289 18.360835
 229  1      54.871201 4.873831 25.705169
 230  1      56.981632 6.092289 29.377336
 231  1      52.760770 3.655373 33.049503
 232  1      54.871201 4.873831 36.721670
 233  1      56.981632 6.092289 40.393837
 234  1      52.760770 3.655373 44.066004
 235  1      54.871201 4.873831 47.738171
 236  1      56.981632 6.092289 51.410338
 237  1      52.760770 3.655373 55.082506
 238  1      52.760770 3.655373 22.033002
 239  1      52.760770 1.218458 58.754673
 240  1      59.092062 9.747662 73.443341
 241  1      59.092062 12.184578 3.672167
 242  1      63.312924 17.058409 18.360835
 243  1      59.092062 14.621493 22.033002
 244  1      61.202493 15.839951 25.705169
 245  1      63.312924 17.058409 29.377336
 246  1      59.092062 14.621493 33.049503
 247  1      61.202493 15.839951 36.721670
 248  1      63.312924 17.058409 40.393837
 249  1      59.092062 14.621493 44.066004
 250  1      61.202493 15.839951 47.738171
 251  1      61.202493 15.839951 14.688668
 252  1      63.312924 17.058409 51.410338
 253  1      61.202493 15.839951 58.754673
 254  1      63.312924 17.058409 62.426840
 255  1      59.092062 14.621493 66.099007
 256  1      61.202493 15.839951 69.771174
 257  1      63.312924 17.058409 73.443341
 258  1      61.202493 18.276867 0.000000
 259  1      63.312924 19.495325 3.672167
 260  1      65.423355 20.713782 7.344334
 261  1      61.202493 18.276867 11.016501
 262  1      59.092062 14.621493 55.082506
 263  1      56.981632 10.966120 0.000000
 264  1      59.092062 14.621493 11.016501
 265  1      61.202493 15.839951 3.672167
 266  1      61.202493 13.403036 7.344334
 267  1      56.981632 10.966120 11.016501
 268  1      59.092062 12.184578 14.688668
 269  1      61.202493 13.403036 18.360835
 270  1      56.981632 10.966120 22.033002
 271  1      59.092062 12.184578 25.705169
 272  1      61.202493 13.403036 29.377336
 273  1      56.981632 10.966120 33.049503
 274  1      59.092062 12.184578 36.721670
 275  1      63.312924 17.058409 7.344334
 276  1      61.202493 13.403036 40.393837
 277  1      59.092062 12.184578 47.738171
 278  1      61.202493 13.403036 51.410338
 279  1      56.981632 10.966120 55.082506
 280  1      59.092062 12.184578 58.754673
 281  1      61.202493 13.403036 62.426840
 282  1      56.981632 10.966120 66.099007
 283  1      59.092062 12.184578 69.771174
 284  1      61.202493 13.403036 73.443341
 285  1      59.092062 14.621493 0.000000
 286  1      56.981632 10.966120 44.066004
 287  1      50.650339 0.000000 55.082506
 288  1      54.871201 2.436916 51.410338
 289  1      52.760770 1.218458 47.738171
 290  1      86.527663 67.015179 25.705169
 291  1      88.638094 68.233636 29.377336
 292  1      84.417232 65.796721 33.049503
 293  1      86.527663 67.015179 36.721670
 294  1      88.638094 68.233636 40.393837
 295  1      84.417232 65.796721 44.066004
 296  1      86.527663 67.015179 47.738171
 297  1      88.638094 68.233636 51.410338
 298  1      84.417232 65.796721 55.082506
 299  1      84.417232 65.796721 22.033002
 300  1      86.527663 67.015179 58.754673
 301  1      84.417232 65.796721 66.099007
 302  1      86.527663 67.015179 69.771174
 303  1      88.638094 68.233636 73.443341
 304  1      86.527663 69.452094 0.000000
 305  1      88.638094 70.670552 3.672167
 306  1      90.748524 71.889010 7.344334
 307  1      86.527663 69.452094 11.016501
 308  1      88.638094 70.670552 14.688668
 309  1      90.748524 71.889010 18.360835
 310  1      88.638094 68.233636 62.426840
 311  1      86.527663 69.452094 22.033002
 312  1      88.638094 68.233636 18.360835
 313  1      84.417232 65.796721 11.016501
 314  1      84.417232 63.359805 14.688668
 315  1      86.527663 64.578263 18.360835
 316  1      82.306801 62.141347 22.033002
 317  1      84.417232 63.359805 25.705169
 318  1      86.527663 64.578263 29.377336
 319  1      82.306801 62.141347 33.049503
 320  1      84.417232 63.359805 36.721670
 321  1      86.527663 64.578263 40.393837
 322  1      82.306801 62.141347 44.066004
 323  1      86.527663 67.015179 14.688668
 324  1      84.417232 63.359805 47.738171
 325  1      82.306801 62.141347 55.082506
 326  1      84.417232 63.359805 58.754673
 327  1      86.527663 64.578263 62.426840
 328  1      82.306801 62.141347 66.099007
 329  1      84.417232 63.359805 69.771174
 330  1      86.527663 64.578263 73.443341
 331  1      84.417232 65.796721 0.000000
 332  1      86.527663 67.015179 3.672167
 333  1      88.638094 68.233636 7.344334
 334  1      86.527663 64.578263 51.410338
 335  1      88.638094 70.670552 25.705169
 336  1      90.748524 71.889010 29.377336
 337  1      86.527663 69.452094 33.049503
 338  1      92.858955 75.544383 51.410338
 339  1      88.638094 73.107467 55.082506
 340  1      90.748524 74.325925 58.754673
 341  1      92.858955 75.544383 62.426840
 342  1      88.638094 73.107467 66.099007
 343  1      90.748524 74.325925 69.771174
 344  1      92.858955 75.544383 73.443341
 345  1      50.650339 0.000000 0.000000
 346  1      52.760770 1.218458 3.672167
 347  1      90.748524 74.325925 47.738171
 348  1      54.871201 2.436916 7.344334
 349  1      52.760770 1.218458 14.688668
 350  1      54.871201 2.436916 18.360835
 351  1      50.650339 0.000000 22.033002
 352  1      52.760770 1.218458 25.705169
 353  1      54.871201 2.436916 29.377336
 354  1      50.650339 0.000000 33.049503
 355  1      52.760770 1.218458 36.721670
 356  1      54.871201 2.436916 40.393837
 357  1      50.650339 0.000000 44.066004
 358  1      50.650339 0.000000 11.016501
 359  1      88.638094 73.107467 44.066004
 360  1      92.858955 75.544383 40.393837
 361  1      90.748524 74.325925 36.721670
 362  1      88.638094 70.670552 36.721670
 363  1      90.748524 71.889010 40.393837
 364  1      86.527663 69.452094 44.066004
 365  1      88.638094 70.670552 47.738171
 366  1      90.748524 71.889010 51.410338
 367  1      86.527663 69.452094 55.082506
 368  1      88.638094 70.670552 58.754673
 369  1      90.748524 71.889010 62.426840
 370  1      86.527663 69.452094 66.099007
 371  1      88.638094 70.670552 69.771174
 372  1      90.748524 71.889010 73.443341
 373  1      88.638094 73.107467 0.000000
 374  1      90.748524 74.325925 3.672167
 375  1      92.858955 75.544383 7.344334
 376  1      88.638094 73.107467 11.016501
 377  1      90.748524 74.325925 14.688668
 378  1      92.858955 75.544383 18.360835
 379  1      88.638094 73.107467 22.033002
 380  1      90.748524 74.325925 25.705169
 381  1      92.858955 75.544383 29.377336
 382  1      88.638094 73.107467 33.049503
 383  1      63.312924 29.242987 0.000000
 384  1      65.423355 28.024529 73.443341
 385  1      63.312924 26.806071 69.771174
 386  1      61.202493 25.587614 66.099007
 387  1      75.975509 58.485974 33.049503
 388  1      78.085940 59.704432 36.721670
 389  1      80.196370 60.922890 40.393837
 390  1      75.975509 58.485974 44.066004
 391  1      78.085940 59.704432 47.738171
 392  1      80.196370 60.922890 51.410338
 393  1      75.975509 58.485974 55.082506
 394  1      78.085940 59.704432 58.754673
 395  1      80.196370 60.922890 62.426840
 396  1      80.196370 60.922890 29.377336
 397  1      75.975509 58.485974 66.099007
 398  1      80.196370 60.922890 73.443341
 399  1      78.085940 62.141347 0.000000
 400  1      80.196370 63.359805 3.672167
 401  1      82.306801 64.578263 7.344334
 402  1      78.085940 62.141347 11.016501
 403  1      80.196370 63.359805 14.688668
 404  1      82.306801 64.578263 18.360835
 405  1      78.085940 62.141347 22.033002
 406  1      80.196370 63.359805 25.705169
 407  1      78.085940 59.704432 69.771174
 408  1      82.306801 64.578263 29.377336
 409  1      78.085940 59.704432 25.705169
 410  1      80.196370 60.922890 18.360835
 411  1      73.865078 54.830601 22.033002
 412  1      75.975509 56.049058 25.705169
 413  1      78.085940 57.267516 29.377336
 414  1      73.865078 54.830601 33.049503
 415  1      75.975509 56.049058 36.721670
 416  1      78.085940 57.267516 40.393837
 417  1      73.865078 54.830601 44.066004
 418  1      75.975509 56.049058 47.738171
 419  1      78.085940 57.267516 51.410338
 420  1      75.975509 58.485974 22.033002
 421  1      73.865078 54.830601 55.082506
 422  1      78.085940 57.267516 62.426840
 423  1      73.865078 54.830601 66.099007
 424  1      75.975509 56.049058 69.771174
 425  1      78.085940 57.267516 73.443341
 426  1      75.975509 58.485974 0.000000
 427  1      78.085940 59.704432 3.672167
 428  1      80.196370 60.922890 7.344334
 429  1      75.975509 58.485974 11.016501
 430  1      78.085940 59.704432 14.688668
 431  1      75.975509 56.049058 58.754673
 432  1      78.085940 57.267516 18.360835
 433  1      78.085940 62.141347 33.049503
 434  1      82.306801 64.578263 40.393837
 435  1      80.196370 65.796721 55.082506
 436  1      82.306801 67.015179 58.754673
 437  1      84.417232 68.233636 62.426840
 438  1      80.196370 65.796721 66.099007
 439  1      82.306801 67.015179 69.771174
 440  1      84.417232 68.233636 73.443341
 441  1      82.306801 69.452094 0.000000
 442  1      84.417232 70.670552 3.672167
 443  1      86.527663 71.889010 7.344334
 444  1      84.417232 68.233636 51.410338
 445  1      82.306801 69.452094 11.016501
 446  1      86.527663 71.889010 18.360835
 447  1      82.306801 69.452094 22.033002
 448  1      84.417232 70.670552 25.705169
 449  1      86.527663 71.889010 29.377336
 450  1      82.306801 69.452094 33.049503
 451  1      84.417232 70.670552 36.721670
 452  1      86.527663 71.889010 40.393837
 453  1      82.306801 69.452094 44.066004
 454  1      84.417232 70.670552 47.738171
 455  1      84.417232 70.670552 14.688668
 456  1      80.196370 63.359805 36.721670
 457  1      82.306801 67.015179 47.738171
 458  1      84.417232 68.233636 40.393837
 459  1      78.085940 62.141347 44.066004
 460  1      80.196370 63.359805 47.738171
 461  1      82.306801 64.578263 51.410338
 462  1      78.085940 62.141347 55.082506
 463  1      80.196370 63.359805 58.754673
 464  1      82.306801 64.578263 62.426840
 465  1      78.085940 62.141347 66.099007
 466  1      80.196370 63.359805 69.771174
 467  1      82.306801 64.578263 73.443341
 468  1      80.196370 65.796721 44.066004
 469  1      80.196370 65.796721 0.000000
 470  1      84.417232 68.233636 7.344334
 471  1      80.196370 65.796721 11.016501
 472  1      82.306801 67.015179 14.688668
 473  1      84.417232 68.233636 18.360835
 474  1      80.196370 65.796721 22.033002
 475  1      82.306801 67.015179 25.705169
 476  1      84.417232 68.233636 29.377336
 477  1      80.196370 65.796721 33.049503
 478  1      82.306801 67.015179 36.721670
 479  1      82.306801 67.015179 3.672167
 480  1      75.975509 56.049058 14.688668
 481  1      73.865078 54.830601 11.016501
 482  1      78.085940 57.267516 7.344334
 483  1      69.644216 42.646023 62.426840
 484  1      65.423355 40.209107 66.099007
 485  1      67.533786 41.427565 69.771174
 486  1      69.644216 42.646023 73.443341
 487  1      67.533786 43.864480 0.000000
 488  1      69.644216 45.082938 3.672167
 489  1      71.754647 46.301396 7.344334
 490  1      67.533786 43.864480 11.016501
 491  1      69.644216 45.082938 14.688668
 492  1      67.533786 41.427565 58.754673
 493  1      71.754647 46.301396 18.360835
 494  1      69.644216 45.082938 25.705169
 495  1      71.754647 46.301396 29.377336
 496  1      67.533786 43.864480 33.049503
 497  1      69.644216 45.082938 36.721670
 498  1      71.754647 46.301396 40.393837
 499  1      67.533786 43.864480 44.066004
 500  1      69.644216 45.082938 47.738171
 501  1      71.754647 46.301396 51.410338
 502  1      67.533786 43.864480 55.082506
 503  1      67.533786 43.864480 22.033002
 504  1      69.644216 45.082938 58.754673
 505  1      65.423355 40.209107 55.082506
 506  1      67.533786 41.427565 47.738171
 507  1      67.533786 38.990649 51.410338
 508  1      63.312924 36.553734 55.082506
 509  1      65.423355 37.772192 58.754673
 510  1      67.533786 38.990649 62.426840
 511  1      63.312924 36.553734 66.099007
 512  1      65.423355 37.772192 69.771174
 513  1      67.533786 38.990649 73.443341
 514  1      65.423355 40.209107 0.000000
 515  1      67.533786 41.427565 3.672167
 516  1      69.644216 42.646023 51.410338
 517  1      69.644216 42.646023 7.344334
 518  1      67.533786 41.427565 14.688668
 519  1      69.644216 42.646023 18.360835
 520  1      65.423355 40.209107 22.033002
 521  1      67.533786 41.427565 25.705169
 522  1      69.644216 42.646023 29.377336
 523  1      65.423355 40.209107 33.049503
 524  1      67.533786 41.427565 36.721670
 525  1      69.644216 42.646023 40.393837
 526  1      65.423355 40.209107 44.066004
 527  1      65.423355 40.209107 11.016501
 528  1      71.754647 46.301396 62.426840
 529  1      67.533786 43.864480 66.099007
 530  1      69.644216 45.082938 69.771174
 531  1      71.754647 51.175227 11.016501
 532  1      73.865078 52.393685 14.688668
 533  1      75.975509 53.612143 18.360835
 534  1      71.754647 51.175227 22.033002
 535  1      73.865078 52.393685 25.705169
 536  1      75.975509 53.612143 29.377336
 537  1      71.754647 51.175227 33.049503
 538  1      73.865078 52.393685 36.721670
 539  1      75.975509 53.612143 40.393837
 540  1      75.975509 53.612143 7.344334
 541  1      71.754647 51.175227 44.066004
 542  1      75.975509 53.612143 51.410338
 543  1      71.754647 51.175227 55.082506
 544  1      73.865078 52.393685 58.754673
 545  1      75.975509 53.612143 62.426840
 546  1      71.754647 51.175227 66.099007
 547  1      73.865078 52.393685 69.771174
 548  1      75.975509 53.612143 73.443341
 549  1      73.865078 54.830601 0.000000
 550  1      75.975509 56.049058 3.672167
 551  1      73.865078 52.393685 47.738171
 552  1      73.865078 52.393685 3.672167
 553  1      71.754647 51.175227 0.000000
 554  1      73.865078 49.956769 73.443341
 555  1      71.754647 46.301396 73.443341
 556  1      69.644216 47.519854 0.000000
 557  1      71.754647 48.738312 3.672167
 558  1      73.865078 49.956769 7.344334
 559  1      69.644216 47.519854 11.016501
 560  1      71.754647 48.738312 14.688668
 561  1      73.865078 49.956769 18.360835
 562  1      69.644216 47.519854 22.033002
 563  1      71.754647 48.738312 25.705169
 564  1      73.865078 49.956769 29.377336
 565  1      69.644216 47.519854 33.049503
 566  1      71.754647 48.738312 36.721670
 567  1      73.865078 49.956769 40.393837
 568  1      69.644216 47.519854 44.066004
 569  1      71.754647 48.738312 47.738171
 570  1      73.865078 49.956769 51.410338
 571  1      69.644216 47.519854 55.082506
 572  1      71.754647 48.738312 58.754673
 573  1      73.865078 49.956769 62.426840
 574  1      69.644216 47.519854 66.099007
 575  1      71.754647 48.738312 69.771174
 576  1      86.527663 71.889010 51.410338
 577  1      63.312924 19.495325 14.688668
 578  1      82.306801 69.452094 55.082506
 579  1      86.527663 71.889010 62.426840
 580  1      56.981632 15.839951 47.738171
 581  1      59.092062 17.058409 51.410338
 582  1      54.871201 14.621493 55.082506
 583  1      56.981632 15.839951 58.754673
 584  1      59.092062 17.058409 62.426840
 585  1      54.871201 14.621493 66.099007
 586  1      56.981632 15.839951 69.771174
 587  1      59.092062 17.058409 73.443341
 588  1      56.981632 18.276867 0.000000
 589  1      54.871201 14.621493 44.066004
 590  1      59.092062 19.495325 3.672167
 591  1      56.981632 18.276867 11.016501
 592  1      59.092062 19.495325 14.688668
 593  1      61.202493 20.713782 18.360835
 594  1      56.981632 18.276867 22.033002
 595  1      59.092062 19.495325 25.705169
 596  1      61.202493 20.713782 29.377336
 597  1      56.981632 18.276867 33.049503
 598  1      59.092062 19.495325 36.721670
 599  1      61.202493 20.713782 40.393837
 600  1      61.202493 20.713782 7.344334
 601  1      56.981632 18.276867 44.066004
 602  1      59.092062 17.058409 40.393837
 603  1      54.871201 14.621493 33.049503
 604  1      54.871201 12.184578 36.721670
 605  1      56.981632 13.403036 40.393837
 606  1      52.760770 10.966120 44.066004
 607  1      54.871201 12.184578 47.738171
 608  1      56.981632 13.403036 51.410338
 609  1      52.760770 10.966120 55.082506
 610  1      54.871201 12.184578 58.754673
 611  1      56.981632 13.403036 62.426840
 612  1      52.760770 10.966120 66.099007
 613  1      56.981632 15.839951 36.721670
 614  1      54.871201 12.184578 69.771174
 615  1      54.871201 14.621493 0.000000
 616  1      56.981632 15.839951 3.672167
 617  1      59.092062 17.058409 7.344334
 618  1      54.871201 14.621493 11.016501
 619  1      56.981632 15.839951 14.688668
 620  1      59.092062 17.058409 18.360835
 621  1      54.871201 14.621493 22.033002
 622  1      56.981632 15.839951 25.705169
 623  1      59.092062 17.058409 29.377336
 624  1      56.981632 13.403036 73.443341
 625  1      52.760770 10.966120 33.049503
 626  1      59.092062 19.495325 47.738171
 627  1      56.981632 18.276867 55.082506
 628  1      61.202493 23.150698 69.771174
 629  1      63.312924 24.369156 73.443341
 630  1      61.202493 25.587614 0.000000
 631  1      63.312924 26.806071 3.672167
 632  1      65.423355 28.024529 7.344334
 633  1      61.202493 25.587614 11.016501
 634  1      63.312924 26.806071 14.688668
 635  1      65.423355 28.024529 18.360835
 636  1      61.202493 25.587614 22.033002
 637  1      59.092062 21.932240 66.099007
 638  1      63.312924 26.806071 25.705169
 639  1      61.202493 25.587614 33.049503
 640  1      63.312924 26.806071 36.721670
 641  1      65.423355 28.024529 40.393837
 642  1      61.202493 25.587614 44.066004
 643  1      63.312924 26.806071 47.738171
 644  1      65.423355 28.024529 51.410338
 645  1      61.202493 25.587614 55.082506
 646  1      63.312924 26.806071 58.754673
 647  1      65.423355 28.024529 62.426840
 648  1      65.423355 28.024529 29.377336
 649  1      61.202493 20.713782 51.410338
 650  1      63.312924 24.369156 62.426840
 651  1      59.092062 21.932240 55.082506
 652  1      59.092062 19.495325 58.754673
 653  1      61.202493 20.713782 62.426840
 654  1      56.981632 18.276867 66.099007
 655  1      59.092062 19.495325 69.771174
 656  1      61.202493 20.713782 73.443341
 657  1      59.092062 21.932240 0.000000
 658  1      61.202493 23.150698 3.672167
 659  1      63.312924 24.369156 7.344334
 660  1      59.092062 21.932240 11.016501
 661  1      61.202493 23.150698 58.754673
 662  1      61.202493 23.150698 14.688668
 663  1      59.092062 21.932240 22.033002
 664  1      61.202493 23.150698 25.705169
 665  1      63.312924 24.369156 29.377336
 666  1      59.092062 21.932240 33.049503
 667  1      61.202493 23.150698 36.721670
 668  1      63.312924 24.369156 40.393837
 669  1      59.092062 21.932240 44.066004
 670  1      61.202493 23.150698 47.738171
 671  1      63.312924 24.369156 51.410338
 672  1      63.312924 24.369156 18.360835
 673  1      56.981632 13.403036 29.377336
 674  1      54.871201 12.184578 25.705169
 675  1      52.760770 10.966120 22.033002
 676  1      46.429478 0.000000 0.000000
 677  1      48.539908 1.218458 3.672167
 678  1      50.650339 2.436916 7.344334
 679  1      46.429478 0.000000 11.016501
 680  1      48.539908 1.218458 14.688668
 681  1      50.650339 2.436916 18.360835
 682  1      46.429478 0.000000 22.033002
 683  1      48.539908 1.218458 25.705169
 684  1      50.650339 2.436916 29.377336
 685  1      88.638094 75.544383 73.443341
 686  1      46.429478 0.000000 33.049503
 687  1      50.650339 2.436916 40.393837
 688  1      46.429478 0.000000 44.066004
 689  1      48.539908 1.218458 47.738171
 690  1      50.650339 2.436916 51.410338
 691  1      46.429478 0.000000 55.082506
 692  1      48.539908 1.218458 58.754673
 693  1      50.650339 2.436916 62.426840
 694  1      46.429478 0.000000 66.099007
 695  1      48.539908 1.218458 69.771174
 696  1      48.539908 1.218458 36.721670