ITEM: TIMESTEP
101000
ITEM: NUMBER OF ATOMS
12442
ITEM: BOX BOUNDS xy xz yz pp pp pp
0.0000000000000000e+00 7.2169560000000004e+01 0.0000000000000000e+00
0.0000000000000000e+00 7.2169560000000004e+01 0.0000000000000000e+00
0.0000000000000000e+00 7.2169560000000004e+01 0.0000000000000000e+00
ITEM: ATOMS id element mass type x y z fx fy fz vx vy vz c_pe
1 Ge 72.64 1 69.2239 8.90528 24.8642 -0.230629 0.182547 -0.0575394 3.46519 -0.942594 -0.358202 -4.8344
2 Ge 72.64 1 63.4323 12.2053 62.8565 -0.0482364 -0.170514 0.751483 0.475531 -0.302134 2.32398 -4.71684
3 Ge 72.64 1 69.6229 30.0467 3.32104 -1.32679 0.386357 0.0788958 0.340487 0.678668 1.99281 -4.74924
4 Ge 72.64 1 5.73973 50.817 63.0357 0.091223 0.39258 0.0107245 2.5975 -5.72258 -2.35276 -4.73216
5 Ge 72.64 1 24.4315 54.049 60.3167 0.180118 -0.285922 -0.358461 1.51553 2.35824 -0.796063 -4.68918
6 Ge 72.64 1 42.1093 20.5108 45.0922 0.0712759 0.646328 -0.322681 3.37319 -4.245 2.10364 -4.55383
7 Ge 72.64 1 11.9408 8.5644 50.7462 -0.0117075 0.69967 -0.251575 -1.24055 0.993111 4.09666 -4.59862
8 Ge 72.64 1 54.1191 39.306 44.97 0.020173 -0.238557 -0.617701 3.3144 -1.85969 -2.86842 -4.69394
9 Ge 72.64 1 57.246 62.443 54.8895 -0.0591986 0.807743 -0.00461309 -3.2934 -2.89423 3.31769 -4.73522
10 Ge 72.64 1 60.5236 3.08438 39.0944 -0.310578 0.144113 -0.140247 -0.585766 1.11007 -0.415445 -4.58119
11 Ge 72.64 1 2.55593 0.0743542 14.812 -0.227429 0.0365616 0.468534 3.12342 4.57703 0.46408 -4.76387
12 Ge 72.64 1 39.0423 8.83152 60.4594 -0.0793692 0.25613 0.407178 3.50774 4.25884 -1.07851 -4.6787
13 Ge 72.64 1 17.8908 30.0785 35.7571 0.183769 -0.200726 0.0731103 2.82046 1.43866 -6.1183 -4.55356
14 Ge 72.64 1 68.9542 21.1235 18.2569 -0.315604 0.126492 -0.320356 0.1361 -0.0185543 -2.67305 -4.66571
15 Ge 72.64 1 68.7261 51.4165 17.9074 -0.249362 -0.464925 0.145614 -3.17556 -0.855653 -4.23309 -4.70663
16 Ge 72.64 1 54.5228 36.4404 71.8344 -1.06677 0.342315 -0.79108 1.6527 -0.0364598 -0.371664 -4.46634
17 Ge 72.64 1 60.4795 18.0759 11.6086 0.381661 -0.0874237 1.05895 -2.73579 -1.61369 0.0995441 -4.77139
18 Ge 72.64 1 42.154 60.5697 6.15646 -0.798931 -0.469785 0.3361 -4.15099 -2.34254 -7.13529 -4.6871
19 Ge 72.64 1 36.1958 2.90877 69.0955 -0.258261 -0.150685 0.0878816 2.03519 0.938608 -1.5969 -4.70612
20 Ge 72.64 1 54.4458 20.8298 69.084 0.0316991 0.094382 -0.255436 1.92832 2.0638 -7.56844 -4.64717
21 Ge 72.64 1 36.1637 24.3368 60.3232 0.000153391 -0.707029 -0.0159751 -2.02928 2.98233 -2.03319 -4.6449
22 Ge 72.64 1 15.0633 33.4565 17.9412 0.144823 -0.922918 -0.119072 0.482844 0.167709 0.600761 -4.68904
23 Ge 72.64 1 66.3494 27.0413 38.7798 0.43204 0.141198 0.185675 -0.667117 0.207077 3.79257 -4.63774
24 Ge 72.64 1 15.6414 42.1515 63.0547 -1.61984 0.123999 -0.358536 -3.25847 -4.30256 -3.27038 -4.78845
25 Ge 72.64 1 29.7424 11.8652 66.1107 0.207914 0.317536 -0.112624 1.43308 2.01282 -7.78676 -4.75633
26 Ge 72.64 1 26.6937 18.2725 38.7003 0.372487 -0.355291 0.31296 1.84183 -2.94401 4.42316 -4.78688
27 Ge 72.64 1 8.66844 35.9241 27.1536 0.617701 0.302715 -1.00848 -1.63512 -3.83719 2.71051 -4.79073
28 Ge 72.64 1 30.0048 57.5637 39.0825 -0.291438 -0.174369 -0.320061 2.60188 4.17672 -2.14747 -4.55344
29 Ge 72.64 1 45.2308 35.8043 32.9474 -0.225195 1.14874 -0.175574 1.50459 0.464099 2.68216 -4.63809
30 Ge 72.64 1 36.2607 53.9666 54.0971 0.686582 -0.265951 -0.290397 -1.87118 -1.93394 2.10032 -4.76971
31 Ge 72.64 1 66.1456 62.8405 69.2459 0.434512 0.592655 0.81037 -0.447729 -3.01164 -1.65398 -4.65973
32 Ge 72.64 1 8.77504 66.2357 9.10258 0.248174 0.339913 0.124873 -3.87167 -0.187113 -0.444287 -4.70542
33 Ge 72.64 1 14.7181 30.5341 69.3513 0.114616 -0.240286 0.179823 1.56004 -0.95617 -0.279823 -4.77048
34 Ge 72.64 1 68.9572 24.4259 32.9595 0.195913 0.11097 0.757433 -2.53614 0.0235148 -1.13225 -4.78406
35 Ge 72.64 1 42.1231 17.8545 35.7699 0.280137 0.16544 0.0465983 -0.0759037 -1.81669 -2.27415 -4.53397
36 Ge 72.64 1 48.3974 36.347 72.1505 -0.153228 -0.665968 0.145429 -0.857201 -5.06298 4.12958 -4.82757
37 Ge 72.64 1 45.344 69.1358 41.8545 -0.205612 -0.0357671 2.26481 -1.02512 0.359768 3.11368 -4.66108
38 Ge 72.64 1 65.9063 39.0535 9.14622 0.400259 0.190287 -0.0158554 -1.85192 2.76897 0.0161097 -4.71914
39 Ge 72.64 1 69.1913 35.8801 51.2903 -0.404454 0.414131 -0.604765 0.813023 -4.52104 3.14058 -4.5799
40 Ge 72.64 1 65.9998 5.97218 17.725 -0.00588075 -0.304755 0.55492 0.63431 -6.09959 -0.231639 -4.72383
41 Ge 72.64 1 57.9182 17.4834 9.06416 -0.669591 -0.0021781 -0.0637536 -1.72886 -1.35785 -0.954887 -4.64356
42 Ge 72.64 1 39.0188 15.3853 29.9281 0.242827 -0.227915 0.206635 4.8641 2.33042 5.21098 -4.68781
43 Ge 72.64 1 5.67423 6.3312 36.4665 -0.236265 -0.0327487 -0.588624 -2.70635 -0.267459 -2.68506 -4.77129
44 Ge 72.64 1 30.0479 14.7233 45.4856 -0.568585 0.197317 -0.411277 0.306102 3.88295 1.78403 -4.72088
45 Ge 72.64 1 33.0355 33.1656 42.1446 -0.250345 -0.125081 -0.505202 -1.95025 0.0851647 0.650086 -4.6585
46 Ge 72.64 1 15.2601 15.4849 24.1099 -0.536881 0.0343867 0.39641 -0.302388 -2.04526 -0.733086 -4.45738
47 Ge 72.64 1 9.17853 45.1851 66.0221 -0.392146 -0.0186771 -0.0273336 -1.02734 -0.130344 1.71576 -4.62762
48 Ge 72.64 1 57.4108 15.5473 60.3283 0.458446 0.122902 0.585848 -1.02668 3.45885 -4.01101 -4.68038
49 Ge 72.64 1 29.9441 33.0167 8.75911 0.294043 0.0396599 0.341277 1.11239 3.77865 2.8085 -4.71584
50 Ge 72.64 1 68.9058 15.3023 71.8303 0.19866 -0.30791 0.265284 5.29693 0.87615 -3.59336 -4.88802
51 Ge 72.64 1 54.2455 6.01571 18.3752 0.213313 0.00452543 -0.181919 -1.05452 -7.49798 -2.07214 -4.79404
52 Ge 72.64 1 69.4126 42.4532 26.7921 0.0426189 0.00696988 0.555321 -0.0935742 -0.414515 -2.55811 -4.63157
53 Ge 72.64 1 63.2314 53.7643 8.8249 -0.192757 -0.0365179 0.473307 1.26409 1.70601 -4.85239 -4.65197
54 Ge 72.64 1 24.0364 45.2733 32.8229 -0.12536 -0.032457 0.306085 2.06376 1.82057 -2.11375 -4.48832
55 Ge 72.64 1 21.5211 21.03 53.5655 -0.726343 0.056726 1.28089 -3.10431 1.22138 -4.05357 -4.46302
56 Ge 72.64 1 9.09243 33.0175 30.2705 -0.610471 0.286278 0.272194 2.27571 4.00284 1.65965 -4.73892
57 Ge 72.64 1 6.39559 54.5306 6.2363 -0.641014 -0.0195807 -0.261042 -0.0408073 -1.44741 3.61679 -4.56158
58 Ge 72.64 1 63.3917 53.9002 15.7115 -0.37824 0.331961 -1.23567 1.92129 -3.90549 1.4485 -4.61641
59 Ge 72.64 1 72.1037 60.6488 36.1141 -0.363338 0.02927 -0.629771 -0.153824 -4.91051 1.0932 -4.61463
60 Ge 72.64 1 29.9183 9.05562 51.2683 1.00499 0.364706 0.250636 0.496699 -3.71381 5.25132 -4.69648
61 Ge 72.64 1 33.4335 35.797 14.4835 -0.146975 -0.198672 0.0875515 -1.36384 -2.53831 -2.63654 -4.51637
62 Ge 72.64 1 26.6694 41.9329 33.0038 -0.0834581 -0.0674057 -0.7513 -0.332272 -3.70157 -0.85768 -4.72104
63 Ge 72.64 1 11.453 3.09141 63.1235 0.991566 0.0443731 0.192961 -0.267398 -6.09829 2.09931 -4.54363
64 Ge 72.64 1 57.3214 39.223 54.1058 -0.512754 0.347988 0.239687 -1.61967 4.03473 -0.569665 -4.78969
65 Ge 72.64 1 33.4038 48.3183 21.1883 -0.129805 -0.250777 -0.320493 0.873362 0.411317 0.64424 -4.58587
66 Ge 72.64 1 33.195 24.5273 8.59779 0.318442 -0.369268 0.0583029 -1.29357 -0.722361 0.73601 -4.41373
67 Ge 72.64 1 27.756 11.6448 21.3421 -0.319663 0.219056 0.341276 -0.702089 0.0654198 0.356067 -4.57756
68 Ge 72.64 1 33.175 50.7907 12.1692 -0.10014 0.00584104 -0.314926 -3.80463 -0.0485547 0.289248 -4.65122
69 Ge 72.64 1 62.7053 66.3069 57.3588 0.56167 0.191002 0.187437 -1.89174 1.27338 -3.42289 -4.74182
70 Ge 72.64 1 2.59405 57.1728 30.0683 0.7693 0.389914 0.376159 3.07587 -1.40311 5.88381 -4.69997
71 Ge 72.64 1 36.6325 5.84949 0.0795345 -0.873766 -0.289338 0.21957 -1.26319 1.80896 0.254367 -4.70369
72 Ge 72.64 1 57.047 5.68865 32.7273 -0.236518 0.282194 -0.113558 0.481028 2.88451 -1.9797 -4.81286
73 Ge 72.64 1 51.37 38.399 11.5004 -0.315415 -0.0581085 0.305118 1.86339 -1.5594 2.36874 -4.65513
74 Ge 72.64 1 72.183 56.8064 21.0247 -0.286487 -0.231692 -0.221769 1.61179 1.58625 0.804746 -4.73678
75 Ge 72.64 1 60.2071 6.06834 60.4691 -0.227461 0.214087 0.220976 1.54755 1.12096 -1.21236 -4.72789
76 Ge 72.64 1 66.3128 45.2925 15.2753 0.0377353 -0.152038 -0.187214 -3.72463 -1.02157 -1.04863 -4.42709
77 Ge 72.64 1 44.8498 47.714 14.7901 0.561944 0.430931 -0.134733 5.03917 -1.94114 4.62586 -4.77803
78 Ge 72.64 1 57.0008 66.0977 33.1427 0.50537 -0.131802 0.156814 1.12285 0.216462 1.31179 -4.68825
79 Ge 72.64 1 24.0753 8.98241 15.1368 -0.640885 -0.117427 -0.124728 -5.26807 6.00664 0.705071 -4.59891
80 Ge 72.64 1 35.9822 6.13509 42.2921 0.215615 0.430457 -0.591765 4.39096 0.371598 -0.303661 -4.79362
81 Ge 72.64 1 8.92703 56.9264 30.2922 -0.901697 0.550391 -0.335471 -0.317795 -2.00173 -0.436745 -4.75811
82 Ge 72.64 1 32.7948 27.2048 36.4331 -0.0324639 -0.467563 -1.37321 -2.11619 2.90623 3.19878 -4.45084
83 Ge 72.64 1 17.8616 36.4858 24.0923 0.27809 -1.40629 0.101496 0.339692 4.62103 -3.27802 -4.74973
84 Ge 72.64 1 60.0022 30.1928 24.1622 1.01828 -0.22271 -0.504594 1.44709 2.86391 8.19615 -4.68361
85 Ge 72.64 1 11.9847 62.4677 39.0839 -0.0413374 0.731497 -0.158752 -2.99602 0.912721 -3.06572 -4.33668
86 Ge 72.64 1 27.0168 44.3698 11.9412 0.357902 0.674334 0.230607 0.420399 -4.44805 -0.683289 -4.57068
87 Ge 72.64 1 41.9832 53.9055 23.3875 -0.155641 -0.0358228 0.797671 -0.00481972 -0.94942 2.30886 -4.41615
88 Ge 72.64 1 24.4965 62.9709 20.7198 -0.13981 0.836965 -0.156769 1.23347 3.33943 0.407418 -4.69029
89 Ge 72.64 1 33.275 26.7628 54.4114 -0.454817 0.246454 0.184614 9.16059 -0.503739 1.63404 -4.6905
90 Ge 72.64 1 26.9753 50.7778 66.1828 0.388743 0.415069 -0.723024 -5.74322 3.98701 -4.53955 -4.60244
91 Ge 72.64 1 17.9428 6.15334 0.195269 0.311561 0.305351 0.781041 2.983 3.72411 2.8477 -4.78736
92 Ge 72.64 1 39.2893 17.8949 63.1635 -0.0838978 -0.3381 -0.243352 -0.677923 0.0228746 6.53666 -4.46245
93 Ge 72.64 1 27.4061 9.26851 36.4051 -0.584462 -0.626224 -0.0332674 -4.08034 -3.5324 -1.54907 -4.61735
94 Ge 72.64 1 12.0339 27.1365 3.42087 -0.348151 -0.0533208 0.177726 -0.0313468 2.83538 0.437192 -4.63258
95 Ge 72.64 1 42.1066 48.0689 17.5004 -0.103868 -0.182815 0.0210628 1.15338 1.03812 -1.51555 -4.71085
96 Ge 72.64 1 68.681 66.4506 20.9013 0.38157 -0.299183 0.431522 3.31289 1.20122 -3.09018 -4.72225
97 Ge 72.64 1 60.6503 36.1822 29.7436 -0.26901 -0.0142654 0.841839 -0.461464 0.544027 2.08127 -4.73075
98 Ge 72.64 1 56.8149 42.4851 32.8728 -0.234558 -1.05487 0.517283 -1.71281 -1.35815 -2.06248 -4.50442
99 Ge 72.64 1 48.5522 69.3828 15.2615 -0.62137 -0.211258 0.341876 0.445738 1.41317 1.73758 -4.54489
100 Ge 72.64 1 9.07098 9.5384 48.0285 0.00765895 -0.0101362 0.272194 0.366846 1.45829 -1.72051 -4.62596
101 Ge 72.64 1 5.9798 32.7101 9.20877 -0.0025976 0.133101 0.0311913 2.78003 4.89755 0.511089 -4.58032
102 Ge 72.64 1 24.7331 71.7481 36.2105 -0.14615 0.948024 0.118315 -5.28491 0.32838 5.07854 -4.52213
103 Ge 72.64 1 30.2632 44.9206 20.6901 -0.609007 0.278658 0.38581 4.38204 1.8364 -0.159526 -4.60133
104 Ge 72.64 1 23.706 30.1623 6.49341 0.234809 0.0191678 -0.0812197 -0.546868 2.02692 -2.31874 -4.43988
105 Ge 72.64 1 50.883 24.2194 27.3071 0.332009 -0.223821 -0.652683 -1.95149 -3.65883 4.38441 -4.77697
106 Ge 72.64 1 21.1368 3.05526 24.3212 -0.492284 0.220394 -0.329739 -3.23784 0.895784 -2.98793 -4.42635
107 Ge 72.64 1 5.87043 45.8907 39.2351 0.203841 -0.979954 -0.230017 -2.60678 -2.264 -0.542335 -4.71587
108 Ge 72.64 1 56.9074 29.93 69.0038 0.663429 -0.099324 -0.198827 -1.10755 2.28221 -0.250959 -4.83166
109 Ge 72.64 1 30.4702 39.1791 63.2139 0.336702 -0.312685 -0.54367 -3.66408 4.41392 0.592459 -4.66379
110 Ge 72.64 1 24.35 66.2668 24.4374 -0.483576 -0.385757 -0.0253529 2.28426 -2.31395 0.70369 -4.58937
111 Ge 72.64 1 69.4039 51.0055 48.0613 0.241986 -0.288562 -0.297889 -4.0748 -3.43994 2.5606 -4.59694
112 Ge 72.64 1 12.1329 53.945 53.9168 0.0876807 0.512274 -0.0680483 0.739714 -1.31158 1.61182 -4.56811
113 Ge 72.64 1 59.8265 21.0781 26.5766 -0.240364 0.0738706 1.17052 -2.70211 -4.3208 -0.600408 -4.61972
114 Ge 72.64 1 32.7482 32.5269 65.9628 0.170998 1.22628 0.205785 -5.61049 0.561593 3.78474 -4.55314
115 Ge 72.64 1 45.3379 0.136251 15.1261 -0.394194 -0.0278608 0.313136 -4.94042 -3.45088 -2.91939 -4.54705
116 Ge 72.64 1 26.7667 39.1277 35.8862 0.234731 0.0241382 0.478751 1.6523 0.765812 -0.456137 -4.73229
117 Ge 72.64 1 18.5406 69.2567 56.598 -0.278663 -0.793305 0.73097 3.53678 0.943396 0.615083 -4.61601
118 Ge 72.64 1 63.5108 63.1035 0.34435 -0.461472 -0.0888008 -0.550245 1.29453 -2.1608 0.689347 -4.73191
119 Ge 72.64 1 2.66888 35.6879 44.3691 -0.120633 0.980986 -0.0635887 -4.0661 1.65006 -1.4407 -4.61355
120 Ge 72.64 1 45.2787 50.9802 30.0781 -0.462619 0.370663 -0.157983 1.93669 -1.52931 3.78427 -4.64975
121 Ge 72.64 1 65.9177 57.1483 14.6995 0.441462 0.0211294 -0.153142 -1.60394 -2.0231 -0.807624 -4.66439
122 Ge 72.64 1 39.1374 54.1388 44.9298 -0.241094 -0.350777 -0.183688 4.19497 0.113106 -1.94801 -4.5848
123 Ge 72.64 1 60.0568 66.2551 65.8144 0.394728 0.233492 0.090925 0.357861 2.7578 -1.61104 -4.77336
124 Ge 72.64 1 45.6185 2.71384 54.9236 -0.806299 0.175054 -2.58628 -4.76219 -5.26694 3.79026 -4.54047
125 Ge 72.64 1 54.4442 29.5746 41.8497 -0.673685 0.215269 0.442937 0.830199 1.36754 -4.32202 -4.59788
126 Ge 72.64 1 36.1188 60.2345 23.8715 0.0402468 -0.195451 0.241895 -1.95791 1.81446 -3.42776 -4.59917
127 Ge 72.64 1 48.0037 47.5518 54.1976 0.167572 0.595918 -0.0338713 3.03454 -0.274085 -2.28399 -4.60386
128 Ge 72.64 1 21.2761 39.5694 18.2034 -0.694749 -0.170718 0.496141 1.8151 1.76992 0.826549 -4.38995
129 Ge 72.64 1 38.9972 54.2099 21.0091 -0.0737393 -0.075144 0.135709 -3.60297 -1.59072 -0.992618 -4.62398
130 Ge 72.64 1 38.9452 5.93899 63.2795 0.601656 0.43063 1.05314 5.26328 0.0252071 2.03711 -4.78152
131 Ge 72.64 1 5.57189 0.19672 29.991 0.25199 0.295377 0.348772 -1.37075 3.41404 2.45517 -4.74414
132 Ge 72.64 1 5.9916 60.2039 6.00232 0.612778 0.817559 0.0147319 -1.03446 -5.41254 -1.38433 -4.65638
133 Ge 72.64 1 24.0094 3.15067 2.81524 0.0388499 -0.363534 -0.0759866 0.447032 -1.41972 4.07578 -4.53986
134 Ge 72.64 1 29.8754 68.8725 21.3564 0.345917 -0.0108516 -0.232372 -0.952653 -2.07075 2.86193 -4.44329
135 Ge 72.64 1 63.1252 18.0377 63.1096 -0.171002 -0.178141 -0.124985 1.22841 0.10004 -2.56273 -4.80772
136 Ge 72.64 1 23.9707 30.3633 65.9687 -0.0754766 0.038912 0.537304 0.628155 0.838212 0.0762683 -4.81164
137 Ge 72.64 1 36.5532 62.9334 33.1268 -0.20911 -0.0102768 -0.122573 0.97346 -0.0128995 4.35375 -4.82021
138 Ge 72.64 1 3.20207 48.2085 63.4677 0.148074 -0.220933 0.533358 -2.52484 0.0417706 -5.35031 -4.7765
139 Ge 72.64 1 33.0686 29.9129 21.0322 -0.239391 0.047902 -0.0739151 0.305427 -4.18505 3.36381 -4.60145
140 Ge 72.64 1 65.8907 3.44516 63.0112 0.179816 0.104206 0.428221 -0.0140618 2.10834 -0.0061646 -4.67743
141 Ge 72.64 1 11.4335 68.7175 26.9572 0.247111 0.881456 0.540089 -0.102919 2.95499 0.473853 -4.66946
142 Ge 72.64 1 35.8473 23.0036 5.69745 0.521471 0.287863 -0.589357 2.00567 3.22989 -5.5916 -4.37619
143 Ge 72.64 1 29.8675 26.3827 44.8288 -0.0124101 0.649542 0.757007 2.61782 -2.25087 -2.46615 -4.60474
144 Ge 72.64 1 38.9633 33.3612 48.0831 0.328162 -0.190934 0.203375 1.92266 1.95025 3.15878 -4.63601
145 Ge 72.64 1 33.0099 23.9948 26.9529 0.0373637 -0.122299 0.386696 -1.7157 0.318251 -1.32231 -4.68401
146 Ge 72.64 1 35.6261 68.6344 15.015 0.356901 0.297677 0.2521 -1.52923 4.09318 1.13834 -4.6807
147 Ge 72.64 1 47.729 65.2138 36.1718 0.342579 1.09535 0.370686 0.0858198 -1.86295 -2.75423 -4.47817
148 Ge 72.64 1 3.12154 15.2129 24.3077 0.459723 -0.317985 0.226978 0.877793 2.36401 2.69634 -4.61751
149 Ge 72.64 1 5.74954 53.6733 59.801 -0.482067 0.114739 0.187203 -5.95894 2.98979 -5.29383 -4.69288
150 Ge 72.64 1 8.90175 9.04892 18.4184 0.101211 0.231466 0.19761 3.3998 -1.00152 -4.71671 -4.52516
151 Ge 72.64 1 65.234 47.9332 11.9068 -0.24896 0.224426 -0.396834 -2.44915 0.17745 -0.567347 -4.4755
152 Ge 72.64 1 2.1309 35.7239 3.22306 0.114737 0.321889 -0.262658 -3.19775 1.00714 -0.470548 -4.72168
153 Ge 72.64 1 48.503 66.4839 72.1522 -1.04856 -0.271738 -0.120088 -1.27847 2.05321 -1.23753 -4.76766
154 Ge 72.64 1 11.8494 9.13714 63.3004 -0.0741984 0.524515 0.118662 -6.13533 6.67435 -1.31525 -4.6874
155 Ge 72.64 1 42.2437 53.9323 59.8723 0.133063 -0.229411 -0.175715 0.603291 -1.88872 -2.39182 -4.69883
156 Ge 72.64 1 45.2878 50.9658 53.637 -0.154132 0.116137 -0.340888 3.12168 -3.36543 0.402495 -4.81123
157 Ge 72.64 1 39.2174 17.6259 45.2029 -0.196237 0.245407 -1.0326 0.722698 -2.10327 -0.623572 -4.65381
158 Ge 72.64 1 27.7411 30.0467 15.0105 -0.674453 -0.878908 -0.0129718 -1.78734 0.488977 -3.87529 -4.67782
159 Ge 72.64 1 32.9569 69.2839 17.9534 0.241308 -0.668273 -0.242878 -2.04915 -2.19547 -0.112876 -4.6558
160 Ge 72.64 1 5.68987 71.7908 53.7937 -0.255889 0.282598 -0.109029 2.35359 -0.114235 -1.1407 -4.59605
161 Ge 72.64 1 56.895 62.9475 30.0978 -0.0964453 0.237692 0.454106 2.9287 3.87005 -2.79667 -4.56798
162 Ge 72.64 1 21.1111 68.8765 48.337 0.31318 0.488317 -0.23837 -2.57713 0.396274 3.45306 -4.6286
163 Ge 72.64 1 3.40361 54.2088 63.1022 -0.41676 -0.0782376 -0.161964 0.773942 -0.963899 7.12381 -4.67126
164 Ge 72.64 1 69.0538 3.56809 60.0456 -0.111354 -0.383485 0.0711578 2.92438 0.140942 -4.6565 -4.63724
165 Ge 72.64 1 11.6708 21.0876 14.7381 0.977188 0.0782388 0.322383 1.56763 0.313627 -2.98524 -4.55285
166 Ge 72.64 1 59.7847 21.1023 39.4952 0.0728372 0.407697 -0.517062 -0.36984 1.91829 -2.51384 -4.79203
167 Ge 72.64 1 63.1361 2.94854 35.8414 -0.180672 0.101211 -0.0179579 0.26576 3.74791 -0.129264 -4.59061
168 Ge 72.64 1 21.0357 20.9199 18.1671 -0.368466 0.151047 -0.210664 1.28979 0.778918 5.29002 -4.58286
169 Ge 72.64 1 15.2117 57.1709 60.3963 0.0266338 0.245277 -0.190869 -2.67251 1.15316 -0.70025 -4.4982
170 Ge 72.64 1 24.7444 14.7126 57.4889 -0.100418 0.346768 -0.513819 0.49334 1.87933 0.0409539 -4.70404
171 Ge 72.64 1 45.1991 9.00087 42.0576 -0.243527 0.105225 0.480441 0.773143 -4.0444 6.32887 -4.5827
172 Ge 72.64 1 14.487 5.82659 50.9984 0.50131 0.209739 -0.597378 3.20237 0.582279 1.25672 -4.80968
173 Ge 72.64 1 48.0303 18.594 48.3004 0.349579 -1.16772 -0.176927 -2.76955 -2.8701 2.49058 -4.7375
174 Ge 72.64 1 51.0766 66.6314 69.2128 0.17218 0.497462 -0.116723 -3.32035 0.938526 -0.35756 -4.68063
175 Ge 72.64 1 2.98721 27.3494 48.2048 -0.851289 -0.181077 -0.102863 0.961255 0.102459 2.58276 -4.6721
176 Ge 72.64 1 15.3312 66.1551 39.0604 0.31809 -0.316503 -1.07752 2.72733 2.16916 -3.72469 -4.49355
177 Ge 72.64 1 51.3563 51.5261 30.2186 -0.553126 -0.0973077 0.209467 -1.52111 1.13531 -3.35061 -4.73573
178 Ge 72.64 1 2.74491 63.3353 29.8367 0.593412 0.109564 0.124874 0.205442 0.515103 3.64956 -4.56754
179 Ge 72.64 1 18.0958 15.5033 68.6624 0.266249 -0.663716 1.6055 5.4939 -4.46009 0.322881 -4.52138
180 Ge 72.64 1 36.2398 60.0475 59.8416 -0.276152 -0.258989 0.940102 -2.01226 2.82179 -1.00714 -4.76477
181 Ge 72.64 1 29.7401 12.3284 30.5545 0.145323 0.125892 -0.25777 -0.748131 6.05721 2.48236 -4.64921
182 Ge 72.64 1 30.0806 48.4553 72.2194 0.408509 -1.05721 -0.303891 -0.685216 4.91947 7.18274 -4.64869
183 Ge 72.64 1 35.5226 57.0699 8.82573 1.0386 0.143071 -0.509126 -0.299856 1.07189 1.38335 -4.60622
184 Ge 72.64 1 36.9302 38.9521 63.0064 -0.300489 -0.0847483 0.539883 -0.75629 6.91612 -1.61912 -4.6935
185 Ge 72.64 1 42.3894 30.4289 53.991 -0.880777 -0.316971 -0.0353488 0.707504 0.232414 -1.70095 -4.82707
186 Ge 72.64 1 36.2063 45.6164 3.34839 0.524573 -1.72076 -1.32947 -1.40624 -1.98103 3.23102 -4.5754
187 Ge 72.64 1 23.7953 39.0778 9.4366 0.35171 0.23439 -1.06908 -0.990572 4.49274 1.68106 -4.808
188 Ge 72.64 1 24.2242 33.2188 9.03136 -0.309522 0.441627 0.21025 -1.92533 -0.775852 1.84124 -4.61145
189 Ge 72.64 1 62.9607 42.0086 69.0998 -0.32441 0.0369103 -0.585041 -7.514 -2.32671 -0.947704 -4.64221
190 Ge 72.64 1 0.556681 27.4838 27.2742 -0.543366 -0.622257 0.0480029 3.06783 -3.93836 2.56373 -4.64727
191 Ge 72.64 1 20.7878 65.9271 27.1426 0.242369 -0.29674 0.0991615 2.44841 1.90008 0.0217579 -4.63294
192 Ge 72.64 1 42.1448 48.1059 23.9287 0.168054 -0.176707 -0.0705321 4.53766 -1.80071 0.288901 -4.75404
193 Ge 72.64 1 0.23677 18.2514 66.712 -0.150511 0.247102 -0.65783 3.93918 1.1839 -1.28627 -4.78953
194 Ge 72.64 1 65.3418 15.0558 21.1821 0.150723 0.471951 -0.182302 0.805585 0.534693 4.17037 -4.71818
195 Ge 72.64 1 3.31163 12.1115 26.6963 -1.33566 -0.0978719 0.0164423 -2.31343 -3.76736 1.34976 -4.65776
196 Ge 72.64 1 57.6254 72.1684 20.7891 0.0946992 -0.255146 0.866438 -1.9015 0.178988 -3.81269 -4.77523
197 Ge 72.64 1 30.025 26.3709 57.1879 0.172413 0.665429 0.033222 4.03653 3.9739 -2.59256 -4.58443
198 Ge 72.64 1 63.2679 45.334 65.571 -0.4966 -0.604498 -0.00452887 -3.62541 -2.06609 0.660468 -4.74554
199 Ge 72.64 1 27.0387 69.0233 17.4833 -0.169334 -0.628892 0.62213 -3.3845 -0.303205 -2.21717 -4.69385
200 Ge 72.64 1 33.1252 12.1355 45.126 0.602496 -0.76477 -0.893386 2.46554 2.31129 -1.29895 -4.74836
201 Ge 72.64 1 51.5026 68.5495 53.5731 -0.318316 1.12841 1.55197 -2.02907 2.28343 3.64026 -4.63784
202 Ge 72.64 1 48.2456 15.1307 69.2221 -0.455301 -0.652351 0.725985 -0.342519 0.427868 6.49272 -4.44193
203 Ge 72.64 1 63.6092 32.5182 0.135219 -0.740028 0.316061 -0.228689 -0.0763774 1.18892 -3.97314 -4.60546
204 Ge 72.64 1 42.5912 71.832 48.4313 -1.13359 0.227276 -0.365588 3.30275 2.715 3.35545 -4.79741
205 Ge 72.64 1 20.9775 33.2302 5.65698 0.950611 0.0765011 0.23008 -1.55959 -1.39135 3.10233 -4.63573
206 Ge 72.64 1 38.8409 23.3829 20.6802 0.111931 0.30354 -0.0935909 1.25562 0.396855 1.03739 -4.54378
207 Ge 72.64 1 54.4663 42.3792 30.1869 -0.747549 -0.0476483 -0.00140128 2.36972 -4.53183 3.24099 -4.58993
208 Ge 72.64 1 36.5174 66.2365 30.0666 -1.02343 -0.636146 -0.302176 -5.77077 -8.36156 -2.55957 -4.52487
209 Ge 72.64 1 39.2853 56.7952 30.0383 -0.28143 0.679514 0.277721 2.46775 2.97689 1.36474 -4.37415
210 Ge 72.64 1 29.8786 2.53623 27.0399 0.254543 0.142295 0.0871948 -1.48568 0.698932 2.77005 -4.59455
211 Ge 72.64 1 2.87201 30.1115 33.2058 -0.192094 0.0420601 -0.0781907 0.96409 3.34402 1.23405 -4.85639
212 Ge 72.64 1 3.20045 21.0349 60.7638 -0.317879 0.183233 0.0709758 -0.384374 0.302642 -1.46744 -4.44105
213 Ge 72.64 1 69.046 30.4064 27.2371 0.915458 -0.347797 0.042686 1.22725 -0.863617 -3.82019 -4.67728
214 Ge 72.64 1 63.2687 0.482019 26.9209 0.0202437 -0.0596573 -0.41438 0.175166 1.26268 1.40951 -4.50195
215 Ge 72.64 1 44.6553 17.9481 50.8744 0.535691 0.358626 0.0719945 0.968021 -5.39889 5.9961 -4.50254
216 Ge 72.64 1 51.0092 0.364756 63.1568 -0.109925 -0.660408 0.347822 -1.83017 -2.83864 -5.2305 -4.71159
217 Ge 72.64 1 9.16658 33.0458 42.1304 0.0465756 -0.152549 -0.318572 -2.20955 -0.278454 6.19442 -4.78288
218 Ge 72.64 1 66.5637 30.1393 66.6375 -0.501782 0.169775 -0.17057 3.15593 -0.106844 0.894524 -4.71957
219 Ge 72.64 1 32.978 62.8758 53.931 0.839281 0.218716 0.167944 -5.2637 -0.387011 -1.16963 -4.54197
220 Ge 72.64 1 39.4407 50.548 53.99 0.0200653 0.448619 0.591244 -1.46018 -2.82323 2.82238 -4.56998
221 Ge 72.64 1 17.6075 48.4155 65.86 0.093853 -0.306442 -0.000282518 -1.2643 -3.5899 -1.89716 -4.42368
222 Ge 72.64 1 11.819 69.1326 9.33528 -0.173207 0.0717895 -1.1526 -2.5251 -1.30065 1.52103 -4.66127
223 Ge 72.64 1 15.2645 54.1737 27.2785 -0.513927 0.575848 -0.203076 0.576634 0.100692 -2.45522 -4.63359
224 Ge 72.64 1 57.2221 48.553 39.0385 0.0620444 0.0161995 0.40822 -1.77168 1.30865 -1.2743 -4.5888
225 Ge 72.64 1 57.1166 36.2843 14.9833 -0.0144736 0.26265 0.309411 3.51791 -1.06094 -3.61454 -4.7227
226 Ge 72.64 1 36.0454 26.9705 51.6715 -0.0133475 0.0951131 -0.421867 3.82862 -2.50937 -2.74223 -4.53541
227 Ge 72.64 1 20.8079 39.1888 6.41309 -0.0868475 -0.409834 -0.174862 2.61784 6.01444 -5.7946 -4.81314
228 Ge 72.64 1 30.53 39.4621 57.063 -0.792781 -0.120518 -0.0259263 4.22149 -1.72446 0.976332 -4.45029
229 Ge 72.64 1 51.264 5.49381 21.0008 -0.342815 -0.0685683 0.202828 3.34564 2.2597 1.7228 -4.75443
230 Ge 72.64 1 27.0681 20.8755 48.1094 -0.393268 -0.299408 0.156063 -3.72708 0.0630515 1.60772 -4.58427
231 Ge 72.64 1 3.02158 23.5827 57.2617 0.0365817 0.426459 -0.147267 2.50464 0.0752685 6.0775 -4.64393
232 Ge 72.64 1 44.796 23.6841 2.80668 0.419415 -0.175971 0.0286626 -0.846975 5.73485 -4.00731 -4.79504
233 Ge 72.64 1 11.852 42.6018 18.0219 0.204388 0.107207 -0.243128 1.67005 -3.32347 1.6028 -4.47354
234 Ge 72.64 1 26.8465 69.1932 60.2816 0.319641 0.131243 -0.507441 0.283693 3.03866 0.463717 -4.53916
235 Ge 72.64 1 48.2855 45.1312 2.80284 -0.18895 -0.710528 0.196479 -3.10454 -0.963627 -0.14829 -4.64535
236 Ge 72.64 1 2.64786 9.44632 66.4958 0.672441 -0.337174 -0.735004 3.33809 2.88601 0.589418 -4.52013
237 Ge 72.64 1 29.9299 38.7683 20.6998 -0.0352792 0.341378 0.0517586 -1.76577 -2.01566 -5.09322 -4.53099
238 Ge 72.64 1 51.0747 36.1869 32.866 0.195119 -0.0531113 0.230971 -1.75162 0.392169 2.54231 -4.50909
239 Ge 72.64 1 60.3424 24.1246 71.9725 0.0644172 -0.0342777 -0.136984 -3.32776 -0.777793 0.726431 -4.73762
240 Ge 72.64 1 2.80751 3.08632 60.3855 -0.0962969 0.545635 -0.296152 -2.13775 -3.95397 -0.320413 -4.66817
241 Ge 72.64 1 39.2554 47.8603 33.1464 0.322672 0.626062 0.19114 -3.20073 -0.611226 1.138 -4.70031
242 Ge 72.64 1 17.2634 39.1529 9.00982 -0.083027 -0.266176 -0.0423239 1.2159 2.62105 3.23499 -4.79379
243 Ge 72.64 1 54.2744 18.1987 41.7547 0.456635 -0.0447511 0.966342 1.02898 1.21781 1.82164 -4.57725
244 Ge 72.64 1 48.3562 62.53 57.1354 -0.343947 0.355072 0.0604295 -0.22994 0.148294 0.205802 -4.48716
245 Ge 72.64 1 54.0532 35.9687 48.3816 -0.382214 0.644731 -0.352849 -3.37813 -1.68327 0.117431 -4.63351
246 Ge 72.64 1 17.7897 14.7987 45.101 -0.0290558 0.0899367 1.18464 -1.90232 3.10629 -0.275548 -4.62234
247 Ge 72.64 1 33.5906 66.3618 39.3705 -0.0829675 -0.625155 -0.793659 -0.762196 1.07062 2.21994 -4.80408
248 Ge 72.64 1 72.1434 41.8354 65.9884 0.26228 0.00687508 -0.260588 0.866057 2.27968 2.98435 -4.77719
249 Ge 72.64 1 21.5551 51.401 60.4305 0.00642585 -0.28048 -0.497458 -3.75002 1.11815 -3.87544 -4.62163
250 Ge 72.64 1 47.9342 18.1045 66.3885 -0.486586 -0.749747 0.234687 -1.13493 -0.47587 -1.77707 -4.74997
251 Ge 72.64 1 38.9854 39.1865 71.9453 -0.0580935 -0.231165 -0.0444955 -6.66743 -5.13401 5.04271 -4.31851
252 Ge 72.64 1 48.1128 33.0929 14.9238 -0.359187 0.22884 0.215963 2.50267 2.36304 4.29728 -4.71727
253 Ge 72.64 1 66.3767 45.0923 51.2377 -0.114203 -0.426722 -0.669719 -1.90458 6.46096 -2.92034 -4.51725
254 Ge 72.64 1 35.6262 21.2566 44.5821 0.00253495 -0.122664 -0.00105936 0.908401 5.38371 0.259158 -4.68587
255 Ge 72.64 1 51.3968 57.2989 36.5549 -0.521449 0.127804 -0.599897 -0.283668 2.42065 6.11176 -4.4692
256 Ge 72.64 1 51.3359 45.7392 66.0962 0.392969 0.400299 -0.454117 -1.01096 -6.08186 0.885057 -4.61988
257 Ge 72.64 1 12.1064 65.7461 48.1185 -0.0384519 2.06928 0.136827 1.04763 0.526889 5.27447 -4.81472
258 Ge 72.64 1 33.0712 54.4654 45.0814 0.911453 -0.564002 -0.580125 -0.0731308 5.22145 3.09944 -4.65875
259 Ge 72.64 1 60.2961 48.1684 53.9841 -0.353857 0.28607 1.22236 -2.98222 2.34226 -3.36575 -4.72148
260 Ge 72.64 1 45.4911 2.98034 18.2462 -0.402269 -0.389185 0.185789 7.65228 2.64189 1.14858 -4.78295
261 Ge 72.64 1 42.0074 29.9794 6.01332 0.0277492 -0.249619 -0.90279 2.63389 -1.44207 -0.775865 -4.46186
262 Ge 72.64 1 63.4759 63.0359 6.0594 -0.0640639 0.0570943 -0.290886 -4.0587 -0.162702 -0.33014 -4.53813
263 Ge 72.64 1 66.4088 48.2916 60.0374 -0.662264 -0.244992 0.411788 2.38243 3.56487 -1.27522 -4.70235
264 Ge 72.64 1 39.205 8.87196 24.1429 0.330702 -0.113166 -0.406843 2.87991 1.5225 0.336544 -4.48267
265 Ge 72.64 1 2.52454 51.312 12.2068 0.436786 -0.117286 -0.0378553 2.0482 -3.96753 -3.11968 -4.50649
266 Ge 72.64 1 53.977 53.8276 12.2496 0.554698 -0.0105762 0.20441 3.73878 2.27721 1.61757 -4.7222
267 Ge 72.64 1 36.1661 15.047 15.0742 0.304759 -0.0576712 0.429355 -0.857693 0.160403 -0.97003 -4.76621
268 Ge 72.64 1 9.03996 66.4824 2.95777 0.44876 -0.721218 -0.520899 -1.06748 -3.2598 4.52892 -4.83133
269 Ge 72.64 1 48.3143 47.7683 65.8265 0.560998 0.144936 -0.139045 -3.08908 2.78385 4.06237 -4.58634
270 Ge 72.64 1 36.0285 11.8163 48.1883 0.071313 0.100482 -0.777052 0.601286 0.755554 3.62658 -4.62279
271 Ge 72.64 1 32.9141 33.5412 5.80582 -0.014352 -0.935213 -0.0587212 -1.19925 4.54818 -2.65909 -4.70975
272 Ge 72.64 1 48.6848 45.2577 63.1586 0.0961976 -0.159065 -0.260893 -3.60119 -0.035826 -0.580026 -4.76248
273 Ge 72.64 1 69.1191 2.86273 23.3058 0.0130507 -0.128329 0.065363 -1.99629 0.942761 -0.267828 -4.80107
274 Ge 72.64 1 23.9135 18.3602 71.2503 -0.00538609 -0.541865 0.483044 5.67603 5.52979 1.60851 -4.62745
275 Ge 72.64 1 54.4547 8.75504 21.3175 0.198343 0.24322 0.371781 3.17931 5.46083 -4.9815 -4.83387
276 Ge 72.64 1 66.6098 60.0214 11.7732 -0.342583 -0.200083 -0.12616 3.00516 -0.0406918 -0.56831 -4.70219
277 Ge 72.64 1 23.642 51.1114 50.8699 -0.101208 -0.267625 0.626772 0.59389 -0.48511 0.432824 -4.58807
278 Ge 72.64 1 8.80511 63.1185 53.9913 0.194061 1.94446 0.0982345 2.19524 -0.0684616 -2.5386 -4.41988
279 Ge 72.64 1 8.8396 66.106 50.847 0.455126 -0.013269 -0.0639278 7.24115 1.98348 1.41556 -4.61217
280 Ge 72.64 1 48.0495 6.07464 60.128 0.672993 -0.221957 0.537206 2.22973 -4.8594 -2.9021 -4.38591
281 Ge 72.64 1 26.8428 21.2951 18.0886 0.354865 -0.671119 0.294062 -6.09634 4.90255 -3.8648 -4.62602
282 Ge 72.64 1 8.97481 21.2817 0.124308 0.236327 0.372127 0.313572 -1.8065 -2.4425 -0.943117 -4.78921
283 Ge 72.64 1 8.92387 0.453764 44.7041 -0.327066 0.0986262 0.314245 -2.08573 1.68778 -4.70212 -4.54885
284 Ge 72.64 1 24.2437 17.9368 48.4668 -0.942733 0.289418 0.0227551 0.250919 3.31801 -2.29545 -4.65816
285 Ge 72.64 1 42.425 47.4969 60.0625 -0.0871425 0.0935174 -0.226225 -6.94933 -3.09278 3.45601 -4.74886
286 Ge 72.64 1 68.8158 57.019 12.2769 0.481183 0.00648089 -0.723685 2.2481 -1.53253 -0.751612 -4.60145
287 Ge 72.64 1 56.9213 45.2326 24.1688 0.0830028 -0.101548 -0.538659 4.12644 -0.666038 2.78386 -4.71255
288 Ge 72.64 1 57.243 29.6798 8.83031 0.0617682 -0.0780589 0.161164 -0.128592 -0.106822 -5.16234 -4.22426
289 Ge 72.64 1 60.3282 51.395 45.2185 -0.297763 -0.304205 -0.302734 1.32393 -0.609479 -4.29564 -4.76237
290 Ge 72.64 1 21.2933 32.9748 11.7378 0.467443 -0.0979554 -0.316808 2.24054 -2.65779 -3.33813 -4.71467