# Converted from POSCAR to lammps format

12442 atoms
3 atom types

0.000000   72.169560   xlo xhi
0.000000   72.169560   ylo yhi
0.000000   72.169560   zlo zhi

  0.000000    0.000000    0.000000   xy xz yz

Atoms

   1  1      69.223900 8.905280 24.864200
   2  1      63.432300 12.205300 62.856500
   3  1      69.622900 30.046700 3.321040
   4  1      5.739730 50.817000 63.035700
   5  1      24.431500 54.049000 60.316700
   6  1      42.109300 20.510800 45.092200
   7  1      11.940800 8.564400 50.746200
   8  1      54.119100 39.306000 44.970000
   9  1      57.246000 62.443000 54.889500
  10  1      60.523600 3.084380 39.094400
  11  1      2.555930 0.074354 14.812000
  12  1      39.042300 8.831520 60.459400
  13  1      17.890800 30.078500 35.757100
  14  1      68.954200 21.123500 18.256900
  15  1      68.726100 51.416500 17.907400
  16  1      54.522800 36.440400 71.834400
  17  1      60.479500 18.075900 11.608600
  18  1      42.154000 60.569700 6.156460
  19  1      36.195800 2.908770 69.095500
  20  1      54.445800 20.829800 69.084000
  21  1      36.163700 24.336800 60.323200
  22  1      15.063300 33.456500 17.941200
  23  1      66.349400 27.041300 38.779800
  24  1      15.641400 42.151500 63.054700
  25  1      29.742400 11.865200 66.110700
  26  1      26.693700 18.272500 38.700300
  27  1      8.668440 35.924100 27.153600
  28  1      30.004800 57.563700 39.082500
  29  1      45.230800 35.804300 32.947400
  30  1      36.260700 53.966600 54.097100
  31  1      66.145600 62.840500 69.245900
  32  1      8.775040 66.235700 9.102580
  33  1      14.718100 30.534100 69.351300
  34  1      68.957200 24.425900 32.959500
  35  1      42.123100 17.854500 35.769900
  36  1      48.397400 36.347000 72.150500
  37  1      45.344000 69.135800 41.854500
  38  1      65.906300 39.053500 9.146220
  39  1      69.191300 35.880100 51.290300
  40  1      65.999800 5.972180 17.725000
  41  1      57.918200 17.483400 9.064160
  42  1      39.018800 15.385300 29.928100
  43  1      5.674230 6.331200 36.466500
  44  1      30.047900 14.723300 45.485600
  45  1      33.035500 33.165600 42.144600
  46  1      15.260100 15.484900 24.109900
  47  1      9.178530 45.185100 66.022100
  48  1      57.410800 15.547300 60.328300
  49  1      29.944100 33.016700 8.759110
  50  1      68.905800 15.302300 71.830300
  51  1      54.245500 6.015710 18.375200
  52  1      69.412600 42.453200 26.792100
  53  1      63.231400 53.764300 8.824900
  54  1      24.036400 45.273300 32.822900
  55  1      21.521100 21.030000 53.565500
  56  1      9.092430 33.017500 30.270500
  57  1      6.395590 54.530600 6.236300
  58  1      63.391700 53.900200 15.711500
  59  1      72.103700 60.648800 36.114100
  60  1      29.918300 9.055620 51.268300
  61  1      33.433500 35.797000 14.483500
  62  1      26.669400 41.932900 33.003800
  63  1      11.453000 3.091410 63.123500
  64  1      57.321400 39.223000 54.105800
  65  1      33.403800 48.318300 21.188300
  66  1      33.195000 24.527300 8.597790
  67  1      27.756000 11.644800 21.342100
  68  1      33.175000 50.790700 12.169200
  69  1      62.705300 66.306900 57.358800
  70  1      2.594050 57.172800 30.068300
  71  1      36.632500 5.849490 0.079535
  72  1      57.047000 5.688650 32.727300
  73  1      51.370000 38.399000 11.500400
  74  1      72.183000 56.806400 21.024700
  75  1      60.207100 6.068340 60.469100
  76  1      66.312800 45.292500 15.275300
  77  1      44.849800 47.714000 14.790100
  78  1      57.000800 66.097700 33.142700
  79  1      24.075300 8.982410 15.136800
  80  1      35.982200 6.135090 42.292100
  81  1      8.927030 56.926400 30.292200
  82  1      32.794800 27.204800 36.433100
  83  1      17.861600 36.485800 24.092300
  84  1      60.002200 30.192800 24.162200
  85  1      11.984700 62.467700 39.083900
  86  1      27.016800 44.369800 11.941200
  87  1      41.983200 53.905500 23.387500
  88  1      24.496500 62.970900 20.719800
  89  1      33.275000 26.762800 54.411400
  90  1      26.975300 50.777800 66.182800
  91  1      17.942800 6.153340 0.195269
  92  1      39.289300 17.894900 63.163500
  93  1      27.406100 9.268510 36.405100
  94  1      12.033900 27.136500 3.420870
  95  1      42.106600 48.068900 17.500400
  96  1      68.681000 66.450600 20.901300
  97  1      60.650300 36.182200 29.743600
  98  1      56.814900 42.485100 32.872800
  99  1      48.552200 69.382800 15.261500
 100  1      9.070980 9.538400 48.028500
 101  1      5.979800 32.710100 9.208770
 102  1      24.733100 71.748100 36.210500
 103  1      30.263200 44.920600 20.690100
 104  1      23.706000 30.162300 6.493410
 105  1      50.883000 24.219400 27.307100
 106  1      21.136800 3.055260 24.321200
 107  1      5.870430 45.890700 39.235100
 108  1      56.907400 29.930000 69.003800
 109  1      30.470200 39.179100 63.213900
 110  1      24.350000 66.266800 24.437400
 111  1      69.403900 51.005500 48.061300
 112  1      12.132900 53.945000 53.916800
 113  1      59.826500 21.078100 26.576600
 114  1      32.748200 32.526900 65.962800
 115  1      45.337900 0.136251 15.126100
 116  1      26.766700 39.127700 35.886200
 117  1      18.540600 69.256700 56.598000
 118  1      63.510800 63.103500 0.344350
 119  1      2.668880 35.687900 44.369100
 120  1      45.278700 50.980200 30.078100
 121  1      65.917700 57.148300 14.699500
 122  1      39.137400 54.138800 44.929800
 123  1      60.056800 66.255100 65.814400
 124  1      45.618500 2.713840 54.923600
 125  1      54.444200 29.574600 41.849700
 126  1      36.118800 60.234500 23.871500
 127  1      48.003700 47.551800 54.197600
 128  1      21.276100 39.569400 18.203400
 129  1      38.997200 54.209900 21.009100
 130  1      38.945200 5.938990 63.279500
 131  1      5.571890 0.196720 29.991000
 132  1      5.991600 60.203900 6.002320
 133  1      24.009400 3.150670 2.815240
 134  1      29.875400 68.872500 21.356400
 135  1      63.125200 18.037700 63.109600
 136  1      23.970700 30.363300 65.968700
 137  1      36.553200 62.933400 33.126800
 138  1      3.202070 48.208500 63.467700
 139  1      33.068600 29.912900 21.032200
 140  1      65.890700 3.445160 63.011200
 141  1      11.433500 68.717500 26.957200
 142  1      35.847300 23.003600 5.697450
 143  1      29.867500 26.382700 44.828800
 144  1      38.963300 33.361200 48.083100
 145  1      33.009900 23.994800 26.952900
 146  1      35.626100 68.634400 15.015000
 147  1      47.729000 65.213800 36.171800
 148  1      3.121540 15.212900 24.307700
 149  1      5.749540 53.673300 59.801000
 150  1      8.901750 9.048920 18.418400
 151  1      65.234000 47.933200 11.906800
 152  1      2.130900 35.723900 3.223060
 153  1      48.503000 66.483900 72.152200
 154  1      11.849400 9.137140 63.300400
 155  1      42.243700 53.932300 59.872300
 156  1      45.287800 50.965800 53.637000
 157  1      39.217400 17.625900 45.202900
 158  1      27.741100 30.046700 15.010500
 159  1      32.956900 69.283900 17.953400
 160  1      5.689870 71.790800 53.793700
 161  1      56.895000 62.947500 30.097800
 162  1      21.111100 68.876500 48.337000
 163  1      3.403610 54.208800 63.102200
 164  1      69.053800 3.568090 60.045600
 165  1      11.670800 21.087600 14.738100
 166  1      59.784700 21.102300 39.495200
 167  1      63.136100 2.948540 35.841400
 168  1      21.035700 20.919900 18.167100
 169  1      15.211700 57.170900 60.396300
 170  1      24.744400 14.712600 57.488900
 171  1      45.199100 9.000870 42.057600
 172  1      14.487000 5.826590 50.998400
 173  1      48.030300 18.594000 48.300400
 174  1      51.076600 66.631400 69.212800
 175  1      2.987210 27.349400 48.204800
 176  1      15.331200 66.155100 39.060400
 177  1      51.356300 51.526100 30.218600
 178  1      2.744910 63.335300 29.836700
 179  1      18.095800 15.503300 68.662400
 180  1      36.239800 60.047500 59.841600
 181  1      29.740100 12.328400 30.554500
 182  1      30.080600 48.455300 72.219400
 183  1      35.522600 57.069900 8.825730
 184  1      36.930200 38.952100 63.006400
 185  1      42.389400 30.428900 53.991000
 186  1      36.206300 45.616400 3.348390
 187  1      23.795300 39.077800 9.436600
 188  1      24.224200 33.218800 9.031360
 189  1      62.960700 42.008600 69.099800
 190  1      0.556681 27.483800 27.274200
 191  1      20.787800 65.927100 27.142600
 192  1      42.144800 48.105900 23.928700
 193  1      0.236770 18.251400 66.712000
 194  1      65.341800 15.055800 21.182100
 195  1      3.311630 12.111500 26.696300
 196  1      57.625400 72.168400 20.789100
 197  1      30.025000 26.370900 57.187900
 198  1      63.267900 45.334000 65.571000
 199  1      27.038700 69.023300 17.483300
 200  1      33.125200 12.135500 45.126000
 201  1      51.502600 68.549500 53.573100
 202  1      48.245600 15.130700 69.222100
 203  1      63.609200 32.518200 0.135219
 204  1      42.591200 71.832000 48.431300
 205  1      20.977500 33.230200 5.656980
 206  1      38.840900 23.382900 20.680200
 207  1      54.466300 42.379200 30.186900
 208  1      36.517400 66.236500 30.066600
 209  1      39.285300 56.795200 30.038300
 210  1      29.878600 2.536230 27.039900
 211  1      2.872010 30.111500 33.205800
 212  1      3.200450 21.034900 60.763800
 213  1      69.046000 30.406400 27.237100
 214  1      63.268700 0.482019 26.920900
 215  1      44.655300 17.948100 50.874400
 216  1      51.009200 0.364756 63.156800
 217  1      9.166580 33.045800 42.130400
 218  1      66.563700 30.139300 66.637500
 219  1      32.978000 62.875800 53.931000
 220  1      39.440700 50.548000 53.990000
 221  1      17.607500 48.415500 65.860000
 222  1      11.819000 69.132600 9.335280
 223  1      15.264500 54.173700 27.278500
 224  1      57.222100 48.553000 39.038500
 225  1      57.116600 36.284300 14.983300
 226  1      36.045400 26.970500 51.671500
 227  1      20.807900 39.188800 6.413090
 228  1      30.530000 39.462100 57.063000
 229  1      51.264000 5.493810 21.000800
 230  1      27.068100 20.875500 48.109400
 231  1      3.021580 23.582700 57.261700
 232  1      44.796000 23.684100 2.806680
 233  1      11.852000 42.601800 18.021900
 234  1      26.846500 69.193200 60.281600
 235  1      48.285500 45.131200 2.802840
 236  1      2.647860 9.446320 66.495800
 237  1      29.929900 38.768300 20.699800
 238  1      51.074700 36.186900 32.866000
 239  1      60.342400 24.124600 71.972500
 240  1      2.807510 3.086320 60.385500
 241  1      39.255400 47.860300 33.146400
 242  1      17.263400 39.152900 9.009820
 243  1      54.274400 18.198700 41.754700
 244  1      48.356200 62.530000 57.135400
 245  1      54.053200 35.968700 48.381600
 246  1      17.789700 14.798700 45.101000
 247  1      33.590600 66.361800 39.370500
 248  1      72.143400 41.835400 65.988400
 249  1      21.555100 51.401000 60.430500
 250  1      47.934200 18.104500 66.388500
 251  1      38.985400 39.186500 71.945300
 252  1      48.112800 33.092900 14.923800
 253  1      66.376700 45.092300 51.237700
 254  1      35.626200 21.256600 44.582100
 255  1      51.396800 57.298900 36.554900
 256  1      51.335900 45.739200 66.096200
 257  1      12.106400 65.746100 48.118500
 258  1      33.071200 54.465400 45.081400
 259  1      60.296100 48.168400 53.984100
 260  1      45.491100 2.980340 18.246200
 261  1      42.007400 29.979400 6.013320
 262  1      63.475900 63.035900 6.059400
 263  1      66.408800 48.291600 60.037400
 264  1      39.205000 8.871960 24.142900
 265  1      2.524540 51.312000 12.206800
 266  1      53.977000 53.827600 12.249600
 267  1      36.166100 15.047000 15.074200
 268  1      9.039960 66.482400 2.957770
 269  1      48.314300 47.768300 65.826500
 270  1      36.028500 11.816300 48.188300
 271  1      32.914100 33.541200 5.805820
 272  1      48.684800 45.257700 63.158600
 273  1      69.119100 2.862730 23.305800
 274  1      23.913500 18.360200 71.250300
 275  1      54.454700 8.755040 21.317500
 276  1      66.609800 60.021400 11.773200
 277  1      23.642000 51.111400 50.869900
 278  1      8.805110 63.118500 53.991300
 279  1      8.839600 66.106000 50.847000
 280  1      48.049500 6.074640 60.128000
 281  1      26.842800 21.295100 18.088600
 282  1      8.974810 21.281700 0.124308
 283  1      8.923870 0.453764 44.704100
 284  1      24.243700 17.936800 48.466800
 285  1      42.425000 47.496900 60.062500
 286  1      68.815800 57.019000 12.276900
 287  1      56.921300 45.232600 24.168800
 288  1      57.243000 29.679800 8.830310
 289  1      60.328200 51.395000 45.218500
 290  1      21.293300 32.974800 11.737800
 291  1      8.987720 69.321100 24.322800
 292  1      27.100800 39.058300 23.902100
 293  1      35.836800 9.110920 50.981100
 294  1      20.503700 6.183050 27.334500
 295  1      45.098000 35.877400 3.046510
 296  1      41.900100 30.518000 35.547900
 297  1      33.517800 5.471190 51.152800
 298  1      47.937200 24.246100 54.245000
 299  1      17.934500 17.777900 17.986100
 300  1      53.970900 35.935800 36.251400
 301  1      48.321200 48.473200 72.145400
 302  1      12.004900 35.955300 53.954600
 303  1      63.384500 26.479500 5.672440
 304  1      60.530200 72.105900 6.016050
 305  1      17.918300 18.232000 35.882100
 306  1      65.727600 18.052000 65.976100
 307  1      57.680200 32.970700 65.532100
 308  1      54.133700 15.101800 51.046300
 309  1      68.902700 0.310025 3.192230
 310  1      6.086550 33.403900 33.734800
 311  1      54.071900 66.647100 0.157848
 312  1      21.208800 30.462400 26.806000
 313  1      29.663200 32.755800 26.951100
 314  1      41.949000 9.032170 57.559100
 315  1      38.791400 26.995700 72.035700
 316  1      66.492100 17.715700 12.546600
 317  1      60.168100 6.424480 18.150800
 318  1      17.863200 9.558670 27.112600
 319  1      36.466900 39.177600 68.857500
 320  1      51.022900 60.232400 69.958100
 321  1      30.181700 32.659600 51.015400
 322  1      6.065930 41.635200 12.242300
 323  1      38.883700 42.317300 68.991000
 324  1      56.726700 20.668500 23.576200
 325  1      12.447800 2.915460 69.170200
 326  1      5.658820 71.902700 17.823200
 327  1      47.931800 36.198700 54.003600
 328  1      51.197300 14.824700 24.581500
 329  1      54.505000 9.183460 45.401600
 330  1      12.322800 66.095100 18.474700
 331  1      21.490400 8.800840 36.865700
 332  1      51.352400 8.888890 18.022100
 333  1      2.980150 57.145300 11.709600
 334  1      63.409600 58.003900 23.973300
 335  1      33.580800 26.941200 24.116100
 336  1      5.950270 48.452100 29.951700
 337  1      39.206400 60.258300 33.208000
 338  1      57.547700 27.409100 71.951900
 339  1      60.111800 17.804300 47.735100
 340  1      29.683700 5.823470 42.321800
 341  1      53.858400 33.315700 15.047000
 342  1      48.090100 24.206100 17.767900
 343  1      2.734080 50.730300 60.626100
 344  1      51.621000 11.712900 26.655900
 345  1      42.275900 3.429490 45.609000
 346  1      3.274390 42.158700 21.445500
 347  1      60.489100 0.010148 54.575400
 348  1      63.475700 3.130040 23.774400
 349  1      23.638100 2.912140 32.980400
 350  1      69.005500 60.207300 44.899800
 351  1      68.484600 69.287200 24.718100
 352  1      21.004700 33.249500 23.917600
 353  1      36.188100 71.870600 5.684100
 354  1      33.460400 66.221800 51.216300
 355  1      41.746300 59.616000 48.497400
 356  1      44.800000 3.065240 60.436600
 357  1      36.033300 23.744500 12.136400
 358  1      6.434460 30.279200 17.996900
 359  1      20.774000 27.178000 12.069700
 360  1      17.858800 24.376700 48.145800
 361  1      68.864500 0.050326 20.814300
 362  1      36.330700 65.910200 54.142400
 363  1      50.946600 20.398000 5.766230
 364  1      15.073900 33.369300 35.757800
 365  1      2.523480 45.396500 71.983700
 366  1      39.063300 59.834400 3.009380
 367  1      60.470500 3.265730 2.847480
 368  1      66.211600 69.549400 38.994700
 369  1      2.959250 15.143300 12.162300
 370  1      69.235300 54.508800 69.553100
 371  1      38.952300 12.023200 63.056100
 372  1      69.284600 59.803100 14.832700
 373  1      54.363000 35.936100 24.352900
 374  1      60.239900 17.939600 36.137500
 375  1      30.089300 51.228700 69.630200
 376  1      69.149600 57.341700 30.184200
 377  1      5.911080 57.214500 39.323600
 378  1      30.540800 60.117700 35.746500
 379  1      15.217600 36.053900 33.415900
 380  1      29.635700 69.247300 50.582400
 381  1      20.933200 51.764000 12.444700
 382  1      63.084300 2.847250 60.829400
 383  1      63.322400 6.584670 27.080900
 384  1      36.103200 57.189600 45.270900
 385  1      41.853900 63.469700 9.212680
 386  1      42.261600 3.498840 20.417200
 387  1      48.320300 57.160500 27.181000
 388  1      3.364750 15.368300 6.325020
 389  1      72.234100 48.010300 72.177900
 390  1      48.297300 17.827600 35.997500
 391  1      69.374800 39.235700 23.796200
 392  1      24.231800 0.361469 59.956100
 393  1      63.336400 12.204700 57.229500
 394  1      65.192000 69.258200 69.162200
 395  1      42.492800 62.810000 69.121900
 396  1      12.031700 51.054300 50.882700
 397  1      14.953500 30.165500 15.386700
 398  1      9.645520 18.577400 39.270700
 399  1      60.433000 23.959400 6.054020
 400  1      45.132600 72.125200 45.241100
 401  1      51.192700 26.630600 6.308130
 402  1      11.868900 9.429620 69.206300
 403  1      56.368600 39.541700 59.849900
 404  1      54.403900 18.169000 11.601600
 405  1      65.967300 3.377390 44.995300
 406  1      21.105600 9.231980 0.336504
 407  1      6.191060 27.273000 33.408600
 408  1      2.705310 27.114500 66.905300
 409  1      69.182700 48.510600 26.690400
 410  1      63.861300 51.396000 0.019456
 411  1      51.562700 6.314480 14.904500
 412  1      63.418400 8.809070 18.239700
 413  1      12.513100 36.059400 12.068300
 414  1      41.617100 14.931500 33.081000
 415  1      71.993500 18.296400 6.510980
 416  1      66.197100 11.687500 35.767000
 417  1      11.981600 72.135900 18.100700
 418  1      57.360400 6.103300 45.014600
 419  1      33.299700 5.973290 33.395000
 420  1      51.243700 69.407300 18.471500
 421  1      32.795200 48.022100 51.225600
 422  1      36.170200 17.860900 12.108700
 423  1      26.860500 71.890300 27.065000
 424  1      17.989000 17.926900 5.651910
 425  1      33.130800 11.879700 33.502400
 426  1      44.976800 54.189700 33.296900
 427  1      41.779800 26.260000 69.438000
 428  1      59.804000 21.247300 51.227000
 429  1      45.386700 35.678900 44.891900
 430  1      27.115200 36.316500 63.225100
 431  1      35.509000 27.153600 32.339600
 432  1      9.234160 26.691700 30.341400
 433  1      51.378800 6.001580 51.129200
 434  1      47.998700 15.061500 33.083500
 435  1      42.573400 36.340100 17.630600
 436  1      45.041000 38.410600 24.297700
 437  1      27.026300 2.965930 11.801500
 438  1      30.212600 44.844900 32.576100
 439  1      69.307800 24.139900 27.289000
 440  1      38.913800 20.717500 71.673100
 441  1      51.089300 2.676050 42.381300
 442  1      45.436300 50.684600 59.890000
 443  1      71.912700 2.547060 9.488100
 444  1      21.307500 66.043900 63.271700
 445  1      12.131800 2.943230 50.926000
 446  1      69.336500 20.923400 36.033500
 447  1      63.015200 20.676100 66.343200
 448  1      60.213100 9.079330 63.368300
 449  1      39.121500 59.868700 14.933500
 450  1      66.724300 69.199200 50.980900
 451  1      11.727100 26.833500 39.089200
 452  1      50.831900 9.301880 66.451500
 453  1      33.491700 62.928000 35.983100
 454  1      8.680910 69.188300 30.070200
 455  1      57.006100 30.125500 21.245000
 456  1      23.532400 63.376500 14.639200
 457  1      51.391200 57.369800 18.015500
 458  1      68.715500 14.718200 12.205500
 459  1      18.142100 57.279600 63.404300
 460  1      9.143350 9.508480 66.251300
 461  1      45.190200 39.044500 6.305680
 462  1      6.026930 39.350600 33.749800
 463  1      62.753500 51.233900 60.021300
 464  1      54.305200 63.292500 69.484600
 465  1      71.607800 66.463400 0.206342
 466  1      3.040760 8.699100 12.647100
 467  1      53.994300 17.438300 5.833750
 468  1      63.390600 71.652400 32.898700
 469  1      54.063700 11.681300 0.162634
 470  1      57.642900 2.461470 60.502300
 471  1      26.912500 27.292200 6.363450
 472  1      18.268000 14.888100 32.924400
 473  1      36.336900 47.956700 11.721300
 474  1      51.189900 71.789400 51.469100
 475  1      36.376600 56.870600 56.708600
 476  1      26.823800 60.035100 14.861600
 477  1      17.737900 41.781000 72.015700
 478  1      38.957600 33.038600 35.628400
 479  1      72.140700 14.968000 21.083300
 480  1      63.733900 23.671800 51.039400
 481  1      27.304400 42.085200 63.728300
 482  1      69.371900 30.199400 44.819500
 483  1      17.818100 60.186400 48.006400
 484  1      9.170560 50.502400 18.131100
 485  1      48.435400 69.521900 27.072600
 486  1      63.301300 33.594000 23.565300
 487  1      48.075200 6.026130 36.193400
 488  1      57.642000 9.103210 18.621500
 489  1      45.418000 0.263675 51.715600
 490  1      69.046400 57.358800 -0.006765
 491  1      17.912900 33.389600 45.170200
 492  1      33.055100 51.113300 66.224800
 493  1      30.220300 30.041700 24.316900
 494  1      2.572040 35.727800 21.011200
 495  1      12.511700 57.414300 44.981900
 496  1      39.269700 51.105000 72.085400
 497  1      59.706000 45.368000 63.214800
 498  1      12.711700 33.148500 14.948200
 499  1      48.090900 50.738600 32.986300
 500  1      45.010600 66.604700 56.986300
 501  1      17.973200 48.085500 41.891400
 502  1      71.961400 33.266600 51.166200
 503  1      51.114400 3.125210 12.248800
 504  1      48.080600 21.232100 56.856500
 505  1      21.198800 57.081400 29.973400
 506  1      66.189700 20.992700 57.040900
 507  1      24.289000 9.502480 69.026200
 508  1      27.265400 36.601100 69.052800
 509  1      60.442300 11.793600 42.290000
 510  1      6.374030 33.086500 39.336500
 511  1      66.384700 3.109170 39.172000
 512  1      24.371700 68.688000 45.231900
 513  1      69.643700 60.307100 2.903870
 514  1      15.030900 12.436000 57.245500
 515  1      48.084600 36.051400 42.216000
 516  1      57.432200 30.426500 63.210000
 517  1      41.894400 11.960900 54.177700
 518  1      41.953900 65.930400 53.771600
 519  1      59.792000 30.035100 11.838900
 520  1      65.850000 17.900700 6.507480
 521  1      27.021400 54.085200 20.521300
 522  1      42.130300 8.960730 2.834270
 523  1      11.401800 54.343700 30.669200
 524  1      62.962500 35.711100 51.174700
 525  1      12.204500 48.455700 35.888200
 526  1      20.715900 63.311600 48.465000
 527  1      30.458900 17.895300 5.454670
 528  1      18.107000 39.210200 62.391900
 529  1      32.955400 0.069577 51.016700
 530  1      48.167900 33.073400 68.861600
 531  1      39.483200 29.670200 8.565870
 532  1      8.617620 54.403600 15.228900
 533  1      45.543100 9.276450 30.475700
 534  1      60.118600 0.296076 66.469100
 535  1      57.469800 66.472700 2.840430
 536  1      42.074300 51.503800 39.133800
 537  1      69.080200 8.837630 42.095800
 538  1      48.746700 6.275300 42.199300
 539  1      44.973900 9.091060 11.422600
 540  1      39.316900 51.230700 6.011820
 541  1      21.051100 11.906000 8.807840
 542  1      57.097000 45.149900 11.808900
 543  1      42.088500 56.608400 57.051300
 544  1      24.265400 11.841200 48.444700
 545  1      0.155755 57.583900 27.227700
 546  1      39.311100 66.210400 8.748440
 547  1      8.958110 6.466840 39.582000
 548  1      11.989400 53.598200 66.128800
 549  1      30.027300 20.246900 57.144700
 550  1      18.211600 57.230000 2.810760
 551  1      12.036000 54.069900 5.936980
 552  1      57.286400 32.833200 29.686800
 553  1      8.910560 2.998680 5.417370
 554  1      59.918400 54.332300 54.189400
 555  1      48.232500 72.016700 36.284600
 556  1      42.167100 17.094800 12.303400
 557  1      38.937900 42.402800 8.804990
 558  1      48.290300 36.459600 66.252600
 559  1      69.405400 39.122300 41.701200
 560  1      6.464500 32.920300 45.027200
 561  1      45.044700 12.041100 9.192320
 562  1      23.836400 21.059900 26.771100
 563  1      14.989100 14.508300 30.241600
 564  1      47.882900 9.101880 39.357500
 565  1      54.596500 21.586200 63.058200
 566  1      12.015900 54.441400 72.018700
 567  1      65.767100 36.283500 53.913200
 568  1      63.298200 29.716200 50.921200
 569  1      45.084700 47.849100 69.036100
 570  1      69.300600 54.352500 2.929190
 571  1      72.115800 54.076000 0.152795
 572  1      53.581600 63.529600 38.957600
 573  1      69.132100 38.860500 54.216500
 574  1      42.141200 14.660600 8.808310
 575  1      66.174900 60.281500 30.200000
 576  1      18.082700 21.375400 21.238800
 577  1      6.058770 44.879700 51.521000
 578  1      42.209500 47.749900 53.807500
 579  1      71.993300 63.288900 14.548700
 580  1      47.896700 57.254400 8.686810
 581  1      8.861810 21.098900 18.262500
 582  1      24.190500 15.623800 68.758600
 583  1      17.907800 24.139500 24.214400
 584  1      12.245600 65.603600 60.250800
 585  1      18.058300 65.849500 59.768100
 586  1      69.097100 30.193800 63.125400
 587  1      0.471760 69.098400 45.415700
 588  1      36.034700 62.924400 44.668900
 589  1      14.880800 11.673900 21.082500
 590  1      39.028000 11.705800 69.275600
 591  1      63.285100 45.346400 41.979200
 592  1      27.014600 45.087900 54.469900
 593  1      66.526200 36.310200 23.745400
 594  1      20.877300 59.580900 26.960800
 595  1      63.152100 11.727800 45.783600
 596  1      15.082900 20.981500 12.215900
 597  1      9.053620 45.437100 54.091100
 598  1      11.952000 60.374200 30.343200
 599  1      30.459500 6.239680 0.151529
 600  1      15.047200 30.226800 21.616800
 601  1      14.714500 18.084000 63.714900
 602  1      3.304800 15.168900 35.867100
 603  1      71.866700 15.268600 51.462000
 604  1      32.878600 8.691350 48.288600
 605  1      63.054300 20.655700 48.261600
 606  1      59.951800 59.802900 30.368600
 607  1      8.616140 45.123600 71.845500
 608  1      14.645400 54.338200 45.159100
 609  1      35.792900 8.997000 45.410000
 610  1      0.196369 24.196400 24.327600
 611  1      45.117000 21.128600 35.780400
 612  1      41.961600 24.213200 42.100100
 613  1      48.149400 9.219540 33.206500
 614  1      44.918100 45.544700 41.798000
 615  1      39.265900 29.725500 51.011700
 616  1      63.051100 29.918800 44.509000
 617  1      36.263100 71.948400 71.792000
 618  1      30.159900 27.123300 8.164430
 619  1      35.873400 21.267200 38.233900
 620  1      26.932000 30.148900 44.550500
 621  1      26.976000 66.379900 33.035500
 622  1      54.312200 63.334100 21.413200
 623  1      6.024310 30.271300 0.477850
 624  1      6.257230 44.958700 63.392900
 625  1      39.450600 39.531100 60.607100
 626  1      26.850400 3.047400 29.826500
 627  1      21.181500 8.548770 12.123500
 628  1      39.121200 60.505500 26.932400
 629  1      2.819270 51.370000 30.018600
 630  1      68.711900 36.185500 56.808700
 631  1      48.249000 51.291300 2.453370
 632  1      0.065183 60.291100 0.149353
 633  1      36.213300 57.110800 14.572200
 634  1      42.172200 24.046600 29.344900
 635  1      66.293900 32.531700 44.958200
 636  1      11.681400 50.719500 62.852800
 637  1      11.556600 6.274030 42.472500
 638  1      57.131500 45.465100 65.976600
 639  1      33.048600 9.283180 24.229100
 640  1      3.237350 17.989900 8.933510
 641  1      36.118300 69.050600 33.240400
 642  1      50.754300 17.621200 8.928220
 643  1      26.785300 68.368700 66.144700
 644  1      18.143500 48.529600 24.221200
 645  1      5.781670 45.431800 2.737920
 646  1      63.004000 21.469600 0.549201
 647  1      54.287000 8.921190 2.586690
 648  1      66.403400 57.242300 51.382700
 649  1      66.293200 23.506600 54.111500
 650  1      54.321900 45.309700 2.367730
 651  1      63.715700 32.889200 66.518200
 652  1      63.400000 38.629600 0.259699
 653  1      21.057600 41.478600 51.244800
 654  1      48.238300 11.963200 36.034200
 655  1      42.015900 20.937200 32.542600
 656  1      36.426300 9.014620 14.918000
 657  1      47.954200 38.564700 20.654300
 658  1      27.124100 48.331600 2.988690
 659  1      15.505500 45.451100 23.946100
 660  1      32.970000 6.008420 45.046900
 661  1      20.834000 72.141000 33.155900
 662  1      8.436060 69.085600 11.374300
 663  1      27.167600 3.272940 5.780820
 664  1      60.061900 30.738300 60.267400
 665  1      27.514700 41.891100 14.806100
 666  1      27.135500 36.494200 38.988600
 667  1      18.396400 30.647800 11.979600
 668  1      71.996200 5.763760 6.416340
 669  1      54.383900 11.502100 66.598000
 670  1      39.298000 38.893200 12.449100
 671  1      21.464800 72.159600 50.952700
 672  1      5.336470 54.230300 29.865700
 673  1      51.368200 26.931900 36.474900
 674  1      53.471500 63.228200 27.395200
 675  1      15.263900 48.205700 8.937940
 676  1      50.715100 -0.024634 27.014500
 677  1      17.978500 15.403800 27.220400
 678  1      8.604360 51.290500 60.132800
 679  1      47.894700 56.642900 33.306700
 680  1      21.116100 66.049800 2.521130
 681  1      5.921520 63.584500 51.197700
 682  1      6.272570 21.586400 45.108200
 683  1      3.210830 50.973700 0.335685
 684  1      48.843700 32.896000 21.098900
 685  1      62.643000 35.308500 45.004500
 686  1      24.376300 69.382000 56.799000
 687  1      20.612500 54.014800 51.133200
 688  1      12.100000 59.969100 59.843900
 689  1      41.897000 17.951500 47.963200
 690  1      36.162400 51.351700 2.787190
 691  1      6.184830 50.728000 56.840700
 692  1      42.349200 23.562500 59.858200
 693  1      15.144300 27.115200 60.377800
 694  1      39.463700 17.632400 2.919690
 695  1      8.714200 36.089100 38.845800
 696  1      50.961300 5.397260 39.605700
 697  1      18.280600 33.139700 27.222100
 698  1      17.997900 27.465300 9.649830
 699  1      45.300300 24.656900 56.755300