# Converted from POSCAR to lammps format

9 atoms
3 atom types

0.000000    4.233926   xlo xhi
0.000000    3.666688   ylo yhi
0.000000   16.821068   zlo zhi

  2.116963    0.000000    0.000000   xy xz yz

Atoms

   1  1      2.116963 1.222229 1.700143
   2  1      4.233926 2.444458 15.120926
   3  2      0.000000 0.000000 5.363010
   4  2      0.000000 0.000000 11.458058
   5  3      0.000000 0.000000 0.000000
   6  3      4.233926 2.444458 3.362870
   7  3      2.116963 1.222229 7.094189
   8  3      4.233926 2.444458 9.726880
   9  3      2.116963 1.222229 13.458198
