ITEM: TIMESTEP
0
ITEM: NUMBER OF ATOMS
8640
ITEM: BOX BOUNDS xy xz yz pp pp pp
2.8660158982684436e-01 7.2617718410173012e+01 0.0000000000000000e+00
2.3883464639540364e-01 6.0514762353604475e+01 0.0000000000000000e+00
2.3883464639540364e-01 6.0514762353604475e+01 0.0000000000000000e+00
ITEM: ATOMS id element mass type x y z fx fy fz vx vy vz 
1 Ge 72.64 1 6.11371 24.3753 50.3189 0.302198 -0.20435 0.517573 -2.73346 5.7104 1.84691 
2 Ge 72.64 1 6.27698 57.4232 41.9466 -0.205194 0.0327365 0.176705 -4.01949 0.819575 -2.45902 
3 Ge 72.64 1 12.1885 14.7303 5.48457 -0.483213 0.238862 -0.0767952 -1.10716 -1.34693 -0.106158 
4 Ge 72.64 1 3.09851 24.3635 11.7022 0.510452 -0.130507 0.0370786 0.715921 -2.16384 -3.88269 
5 Ge 72.64 1 5.92138 45.3239 42.2329 0.458466 0.005954 -0.451147 0.647572 0.0498559 -2.10316 
6 Ge 72.64 1 9.37866 48.1632 48.0161 -0.0981695 -0.159033 -0.107763 -1.63189 -0.0948996 1.30438 
7 Ge 72.64 1 72.642 15.7642 23.7339 0.197642 0.0789934 -0.326353 2.2715 3.14473 -1.8512 
8 Ge 72.64 1 6.62988 54.4864 8.04036 -0.132902 -0.0819713 0.1388 -3.1655 0.406102 -3.8333 
9 Ge 72.64 1 6.31627 9.06771 59.7967 -0.161043 0.196085 -0.119523 -2.32066 -0.857478 -1.65231 
10 Ge 72.64 1 5.58373 2.80668 54.2425 0.354936 0.347757 -0.671992 -0.437525 -1.50359 -0.328298 
11 Ge 72.64 1 11.4837 39.3389 18.1389 0.208915 0.332154 -0.610273 0.379187 -2.8221 -2.78925 
12 Ge 72.64 1 0.546781 18.6916 2.96639 -0.0936476 -0.232324 -0.138239 2.20354 3.65633 2.76556 
13 Ge 72.64 1 5.87681 29.8453 39.0468 0.0135132 0.0166646 0.00292618 -3.33815 0.798704 1.1148 
14 Ge 72.64 1 2.62668 54.6029 29.7028 0.121829 0.324946 -0.195049 0.0815103 1.30422 0.494224 
15 Ge 72.64 1 9.26151 15.0394 39.1132 0.190115 0.28135 -0.0659765 5.71021 -1.71051 1.6421 
16 Ge 72.64 1 6.32483 21.4246 59.788 -0.0949385 -0.110121 0.109827 2.1349 -0.58759 0.730193 
17 Ge 72.64 1 0.337626 12.2836 32.8747 0.0425689 -0.0617893 -0.105605 0.344971 4.01012 -0.0949037 
18 Ge 72.64 1 5.82104 57.3948 48.1832 -0.120202 0.301037 -0.528076 3.05148 -0.334538 1.83508 
19 Ge 72.64 1 6.58309 29.6822 33.069 0.0687271 0.100138 0.00293267 1.22046 1.01521 3.03405 
20 Ge 72.64 1 3.30635 24.4069 59.597 -0.247179 -0.0842166 0.44999 3.37188 0.881798 -0.670576 
21 Ge 72.64 1 8.84232 -0.00202227 29.4401 0.100445 0.434118 0.33526 -1.26022 -3.65916 -1.98463 
22 Ge 72.64 1 3.73996 26.9012 44.9536 -0.0329719 0.388078 -0.0879023 1.8919 1.08101 -0.775489 
23 Ge 72.64 1 69.671 38.6878 34.7532 -0.103453 -0.0599382 0.116957 0.680335 3.39634 -0.153292 
24 Ge 72.64 1 11.8492 57.8101 6.09372 -0.673027 0.261241 0.188276 0.0100331 -2.92538 0.819847 
25 Ge 72.64 1 72.5384 55.0708 32.8731 -0.448076 0.0158742 0.429567 -1.32773 -0.799471 -0.211285 
26 Ge 72.64 1 12.4821 39.3269 36.108 -0.0845983 -0.242385 -0.31076 -2.81365 2.93486 -2.09248 
27 Ge 72.64 1 3.84792 18.2733 17.4845 -0.312819 0.178898 0.0112792 0.636163 -1.56401 -2.97593 
28 Ge 72.64 1 2.81816 18.2641 47.666 0.325989 -0.153323 0.147246 -0.830421 -1.93207 0.606858 
29 Ge 72.64 1 8.8211 12.533 23.3996 0.502446 -0.3871 0.207599 -0.396232 -1.68464 1.82123 
30 Ge 72.64 1 3.17616 36.111 48.0762 -0.0254782 0.508113 -0.490375 1.74826 2.50678 -0.85643 
31 Ge 72.64 1 8.84478 6.34664 36.0545 0.168881 -0.802575 -0.201296 0.349912 0.227377 -0.489865 
32 Ge 72.64 1 6.34756 15.8548 35.4989 -0.189294 -0.0269286 0.147942 -2.39007 5.12819 1.31455 
33 Ge 72.64 1 3.68207 39.3406 56.7886 -0.669073 0.297649 0.0900337 0.923085 0.194829 2.86198 
34 Ge 72.64 1 12.838 40.2968 14.8773 -0.488875 0.179982 -0.557522 -1.69697 2.49368 -2.00927 
35 Ge 72.64 1 12.8681 26.6155 29.164 -0.0437092 0.0298678 -0.271836 -0.769875 3.60799 1.68083 
36 Ge 72.64 1 8.12674 48.5502 29.7689 0.290576 0.0190911 0.0965592 2.97937 -2.04415 1.27606 
37 Ge 72.64 1 2.96351 18.0889 35.545 0.0832673 0.226945 -0.260944 1.44811 5.36196 -0.409372 
38 Ge 72.64 1 3.24348 42.8025 47.6558 0.424815 -0.884391 -0.153152 -1.37482 -1.54065 0.507135 
39 Ge 72.64 1 6.15404 3.56608 47.9312 -0.395732 -0.0927719 -0.0219569 2.44689 2.5445 -1.44442 
40 Ge 72.64 1 6.16893 15.1346 29.4621 -0.213593 -0.0568663 0.214313 1.88976 0.343544 2.50173 
41 Ge 72.64 1 6.13343 12.6405 14.1008 0.0984289 0.0565793 0.37921 -2.16658 1.46084 -2.63463 
42 Ge 72.64 1 9.25556 42.1471 35.8051 -0.0149658 0.0687303 0.00698479 -2.2803 1.71125 3.20101 
43 Ge 72.64 1 6.17761 45.2571 36.2456 -0.0862014 -0.154652 -0.142654 -3.52016 0.288255 -0.588475 
44 Ge 72.64 1 8.71978 12.2516 41.7406 -0.370146 -0.427175 0.238643 -1.25552 1.16192 -0.0733193 
45 Ge 72.64 1 3.19593 18.3393 41.7694 -0.571177 0.0219209 0.0298878 1.71649 -5.14178 1.8148 
46 Ge 72.64 1 9.141 2.87193 26.4149 -0.207089 0.0131149 0.4019 -0.296049 0.251294 -2.07307 
47 Ge 72.64 1 8.8754 57.1266 27.0417 0.269885 -0.119016 -0.0134771 -0.621834 -2.20603 0.231785 
48 Ge 72.64 1 5.53945 39.2062 17.8036 0.0897159 -0.0814854 0.243808 3.69143 1.85453 -0.322547 
49 Ge 72.64 1 9.22228 18.5732 29.9301 -0.207587 -1.37988 -0.300632 -1.87972 -0.190305 1.13756 
50 Ge 72.64 1 8.99254 33.3154 2.9387 -0.207202 0.24068 -0.551419 -0.813146 -2.05809 -0.744488 
51 Ge 72.64 1 72.4869 30.5151 8.73984 0.103835 0.232231 -0.464969 0.993365 -1.00939 0.292685 
52 Ge 72.64 1 1.075 41.8614 44.795 0.237061 0.489285 0.096499 -1.06557 -5.03105 2.9151 
53 Ge 72.64 1 3.38051 56.9625 56.9993 0.282902 -0.143762 0.162347 -3.05801 1.27703 3.73042 
54 Ge 72.64 1 6.07388 5.90286 2.15775 -0.0123214 0.343279 -0.186987 0.543357 -1.58799 -0.57577 
55 Ge 72.64 1 10.1548 54.2569 35.6913 0.157789 -0.0191502 -0.0438282 -1.6264 -0.503985 -1.37846 
56 Ge 72.64 1 5.87742 9.33193 11.3171 0.0757096 0.141751 0.110426 -1.36974 -0.989049 -1.80758 
57 Ge 72.64 1 5.4661 54.4669 20.9583 0.0988409 -0.428192 -0.351766 -2.45865 -3.86206 0.850709 
58 Ge 72.64 1 6.48295 3.47321 29.8389 0.113451 -0.0660172 -0.14638 -0.568305 3.07419 -2.72379 
59 Ge 72.64 1 6.33306 6.32351 8.29784 -0.268542 0.367207 0.391049 -0.529178 1.39928 -1.83236 
60 Ge 72.64 1 6.20172 9.59553 35.4204 -0.128132 -0.181145 -0.0820432 1.84789 -4.88388 -2.17513 
61 Ge 72.64 1 6.14306 3.22853 35.7376 0.692788 0.429375 0.234473 -2.54653 -3.33354 3.92186 
62 Ge 72.64 1 3.06916 27.0579 38.9582 -0.0312368 -0.0435989 -0.171781 0.520809 -2.85621 1.43629 
63 Ge 72.64 1 9.71553 21.0812 8.54037 -0.328102 0.208122 -0.0924716 -1.55796 1.87373 -1.24286 
64 Ge 72.64 1 6.33961 6.30313 32.6252 -0.0339347 0.160264 0.187342 -3.50068 -1.84952 2.83515 
65 Ge 72.64 1 2.88083 24.535 42.1115 0.294798 -0.339295 -0.378008 -1.05497 0.348715 2.54566 
66 Ge 72.64 1 0.346123 53.8258 38.6737 0.240094 0.0666378 -0.0731988 -1.46818 2.88458 0.477485 
67 Ge 72.64 1 6.30781 48.3697 8.79351 0.0642145 0.035054 0.0411276 2.16385 1.85268 2.98847 
68 Ge 72.64 1 12.0655 25.2433 57.698 0.229206 -0.347748 -0.512899 0.368284 -2.01223 1.49709 
69 Ge 72.64 1 3.17576 9.34506 14.8481 0.295208 0.0585091 -0.595232 -2.39608 0.193608 -2.44881 
70 Ge 72.64 1 3.28383 27.4137 14.9293 0.00695314 0.0684838 0.11571 4.19978 2.45477 -2.71579 
71 Ge 72.64 1 6.00767 60.4818 44.9029 -0.100206 -0.33252 0.175531 -1.88149 -0.300552 2.3829 
72 Ge 72.64 1 6.07347 57.6427 5.68662 -0.0699958 0.0519689 0.168652 -1.68025 -1.45995 -1.05197 
73 Ge 72.64 1 9.12963 11.6913 11.2952 0.107152 0.650096 -0.273861 2.48632 1.78727 -1.064 
74 Ge 72.64 1 2.879 0.445014 23.9076 0.232717 0.0312479 -0.260547 -0.522335 -0.0645318 1.48894 
75 Ge 72.64 1 9.19579 57.4865 32.9674 0.237123 0.0790744 0.133696 2.51567 2.89097 -0.481581 
76 Ge 72.64 1 2.97974 21.5379 44.692 -0.615338 -0.924637 0.0338488 -0.235167 1.50663 -4.51909 
77 Ge 72.64 1 9.34506 51.3513 8.62248 0.294915 0.0725002 0.0678628 -1.91546 -3.18255 1.20584 
78 Ge 72.64 1 6.20622 12.5117 38.5055 -0.658416 -0.108348 -0.0785924 -2.47354 -0.297678 0.705821 
79 Ge 72.64 1 72.3069 33.1342 17.9935 -0.333468 -0.179515 -0.258315 -0.288694 -0.838726 1.83126 
80 Ge 72.64 1 0.411087 39.8968 52.8352 -0.18649 -0.130537 0.172714 -1.76229 1.07737 0.134745 
81 Ge 72.64 1 5.68437 57.5903 17.0678 0.151814 -0.119776 0.920856 1.49601 -3.87213 2.98364 
82 Ge 72.64 1 5.83439 12.3385 44.313 0.216036 -0.15572 0.176619 -2.77575 2.00555 1.03484 
83 Ge 72.64 1 3.24534 53.9447 53.9989 -0.491404 0.448749 -0.550958 3.79804 -2.13142 0.740426 
84 Ge 72.64 1 9.04139 36.2696 29.5134 -0.142738 0.121323 -0.183983 -3.20245 3.04787 -0.32521 
85 Ge 72.64 1 2.2525 23.4937 23.7633 -0.150341 0.119227 0.0411635 -0.498205 -1.63376 0.274919 
86 Ge 72.64 1 9.14425 36.5708 6.11478 0.394293 0.194229 0.256942 2.35891 2.67248 -2.70455 
87 Ge 72.64 1 11.6367 60.0043 50.7807 0.014462 -0.12203 -0.0589958 -2.36265 -0.391742 -2.7401 
88 Ge 72.64 1 6.68586 15.6169 17.2612 -0.100875 -0.0690612 -0.0548653 -1.60966 -1.51982 -1.70684 
89 Ge 72.64 1 13.1363 0.601308 2.0056 0.142558 0.221573 -0.179478 -0.930643 1.70938 -1.37289 
90 Ge 72.64 1 8.8401 24.4164 53.5463 0.358211 -0.385976 0.374064 0.393389 3.78643 -2.71922 
91 Ge 72.64 1 5.96784 36.8223 8.86244 0.21012 -0.159951 -0.0153829 0.282431 4.43168 1.07026 
92 Ge 72.64 1 5.61839 8.99737 41.8857 0.387418 -0.385313 -0.329127 -0.496488 -4.41582 1.52596 
93 Ge 72.64 1 3.45053 21.564 26.7413 -0.223464 0.026826 -0.280103 -0.951097 -3.16805 -0.781523 
94 Ge 72.64 1 9.12919 51.6113 15.0073 -0.518819 0.201756 -0.649207 -0.606733 -2.80496 -0.827034 
95 Ge 72.64 1 72.4664 42.3854 56.1552 0.0850119 0.588983 0.250289 0.876935 0.924538 1.84665 
96 Ge 72.64 1 3.44284 9.3828 32.9116 0.074837 -0.0186475 0.221707 1.18212 0.141179 -0.272644 
97 Ge 72.64 1 6.46575 18.3629 32.5952 -0.424474 0.278399 -0.0186989 -0.0468711 0.653166 -0.725818 
98 Ge 72.64 1 6.35255 35.8333 39.0721 0.302253 0.0452989 0.0291385 2.03372 -0.381986 -0.658822 
99 Ge 72.64 1 2.93982 3.44336 26.9297 0.371915 -0.230009 -0.834791 -4.76622 -0.33805 -0.356845 
100 Ge 72.64 1 2.49499 58.0091 20.3755 0.242871 -1.08779 0.255681 -0.553146 -0.199368 -4.50827 
101 Ge 72.64 1 9.42785 30.0278 48.0223 -0.308819 0.263002 0.07128 2.73302 0.687574 2.72354 
102 Ge 72.64 1 11.5516 51.876 29.8137 -0.407289 -0.682619 0.14392 -2.51286 1.91764 -1.8669 
103 Ge 72.64 1 11.6558 54.8516 56.5874 0.114757 -0.115677 0.624836 0.834078 6.03057 -2.13713 
104 Ge 72.64 1 5.54258 51.9594 29.7237 0.01027 -0.402814 -0.0631283 -1.20269 1.93067 -0.395067 
105 Ge 72.64 1 6.52993 47.9371 44.9642 -0.433737 0.201054 0.076028 5.10817 -4.72223 -2.19874 
106 Ge 72.64 1 3.4912 27.6097 57.0477 -0.615127 -0.168918 -0.126419 -1.66959 -1.0315 2.32761 
107 Ge 72.64 1 0.514481 27.4414 24.1457 0.208746 -0.106429 -0.0457191 -1.33059 -2.12475 -0.464567 
108 Ge 72.64 1 72.2176 5.99934 26.8554 0.344106 0.142729 -0.231576 1.92143 -0.217237 -1.70074 
109 Ge 72.64 1 8.96386 39.5959 20.8288 -0.0113382 0.262638 -0.204225 -1.63674 -1.44397 1.93633 
110 Ge 72.64 1 9.78265 24.2512 5.66337 -0.062954 -0.039569 0.215935 -2.18234 -2.46725 3.07081 
111 Ge 72.64 1 0.227156 24.2385 8.70615 -0.11907 -0.094943 -0.189825 -4.23355 1.71732 -1.85688 
112 Ge 72.64 1 0.343624 18.5266 14.416 0.197721 0.266187 0.248686 1.0185 1.96411 0.928901 
113 Ge 72.64 1 6.64368 44.9522 47.8349 -0.158304 0.648135 0.429194 -4.45399 -3.3042 0.121199 
114 Ge 72.64 1 9.13673 33.396 26.7789 0.230011 -0.178925 0.153377 3.1163 1.79982 -2.32254 
115 Ge 72.64 1 7.9689 12.0344 47.4157 0.616176 -0.00171244 -0.212167 -2.40852 1.45465 4.20957 
116 Ge 72.64 1 0.391036 60.3595 38.6055 0.144232 0.282292 -0.238983 0.624857 3.51179 0.627723 
117 Ge 72.64 1 0.47233 30.242 1.93302 -0.148623 -0.340097 0.514381 -0.452396 4.06384 -0.329035 
118 Ge 72.64 1 3.5584 48.5237 53.4219 -0.258082 -0.366449 -0.255492 0.311913 -1.05049 -3.25441 
119 Ge 72.64 1 6.0753 51.8893 11.7618 1.14652 -0.31023 0.144065 3.62229 -2.08683 -1.81548 
120 Ge 72.64 1 13.0674 44.136 21.3844 -0.279342 -0.47314 0.206193 1.68232 -0.611252 -0.191472 
121 Ge 72.64 1 2.40358 3.22779 50.5882 0.390755 -0.211086 -0.110596 0.813837 -0.105391 -1.24452 
122 Ge 72.64 1 9.0931 50.9685 50.9465 0.443734 0.249269 -0.0933836 -1.66297 4.62518 -1.00101 
123 Ge 72.64 1 3.36352 51.3273 45.0409 0.0647701 -0.373429 -0.0238139 -1.48364 -2.52421 -0.278733 
124 Ge 72.64 1 9.10007 24.4728 47.6589 0.331266 -0.477349 -0.219447 -1.89818 0.576943 1.34757 
125 Ge 72.64 1 3.24448 21.1314 20.7331 0.454819 -0.070745 -1.02636 0.702334 0.6004 -1.14817 
126 Ge 72.64 1 8.96511 24.1075 35.813 -0.202965 0.565433 0.311334 3.78847 1.11242 -0.965361 
127 Ge 72.64 1 9.46068 36.4925 53.9727 -0.0146489 -0.293018 -0.185761 0.849286 -0.745137 2.10444 
128 Ge 72.64 1 9.38899 18.4572 35.9344 -0.264625 0.133622 -0.0479738 -0.955831 2.31633 -4.76384 
129 Ge 72.64 1 11.7651 54.5941 14.7579 -0.340767 0.276077 0.028078 -3.42693 1.25288 2.43666 
130 Ge 72.64 1 8.53077 2.73354 57.0174 0.641693 0.273349 -0.139478 -0.0627808 2.73959 -2.64245 
131 Ge 72.64 1 2.72938 6.7301 17.8482 0.510856 -0.464624 -0.2463 2.36198 -0.156837 1.2915 
132 Ge 72.64 1 6.11757 3.28995 41.9194 -0.45136 -0.0146663 -0.121775 -5.95067 -1.43542 1.69898 
133 Ge 72.64 1 71.2022 13.6577 4.77496 -0.194053 -0.199477 -0.0495213 1.92522 -0.647662 -3.68719 
134 Ge 72.64 1 11.9455 54.9666 45.3996 0.329252 -0.420894 -0.246398 -1.05647 2.69014 8.06e-05 
135 Ge 72.64 1 5.83996 6.55369 26.7047 -0.193764 -0.411917 0.924755 -0.773126 0.794933 -0.755877 
136 Ge 72.64 1 5.9746 36.4875 2.8468 -0.332877 -0.217583 0.149646 -0.675006 3.6046 4.58057 
137 Ge 72.64 1 9.18215 57.4685 8.91479 -0.188263 0.0116253 -0.296563 -1.19381 3.35951 0.76845 
138 Ge 72.64 1 72.1078 6.34885 38.5789 -0.264152 0.0511258 -0.27605 0.220592 -2.19903 0.976909 
139 Ge 72.64 1 3.17698 48.284 35.9809 -0.19083 -0.0906404 -0.0961178 -3.02094 0.46803 -1.65051 
140 Ge 72.64 1 8.83432 42.5981 11.7329 0.40342 -0.264316 0.155648 -0.129424 2.72736 0.824264 
141 Ge 72.64 1 8.68238 57.4519 2.32181 -0.314116 -0.359333 0.447808 -0.913638 -3.90291 3.00917 
142 Ge 72.64 1 3.29614 54.747 35.582 -0.0398192 -1.52154 0.141814 -3.03896 0.105481 -2.566 
143 Ge 72.64 1 71.7855 36.3077 15.1093 0.0357251 -0.332829 0.19832 -1.482 0.443571 -2.95979 
144 Ge 72.64 1 2.97524 60.1389 60.0772 0.225835 -0.246546 0.0908369 0.00313222 2.40051 0.840614 
145 Ge 72.64 1 3.2183 6.18619 29.8265 -0.331773 0.210059 0.55187 0.0889096 -3.5047 -3.24864 
146 Ge 72.64 1 6.06663 42.1398 50.8396 0.374925 0.284937 -0.160884 1.47286 0.702913 -2.91167 
147 Ge 72.64 1 72.9563 6.32532 33.0776 -0.4688 -0.334285 0.161974 6.12544 2.65619 0.779578 
148 Ge 72.64 1 9.2286 60.4348 23.5128 0.0948895 0.209342 0.197892 -4.02966 1.21825 -0.213621 
149 Ge 72.64 1 2.52208 54.3824 23.618 -0.00132659 0.253459 -0.136355 -2.95985 -0.600088 -1.03347 
150 Ge 72.64 1 8.65573 6.37028 47.2565 -0.503121 -0.00759978 0.691624 -0.532287 -0.545413 -2.91616 
151 Ge 72.64 1 0.390909 24.4261 26.8482 -0.11008 -0.0374662 -0.320002 -0.112551 -1.03079 0.187209 
152 Ge 72.64 1 3.38949 30.148 23.8241 -0.446212 0.809833 0.190531 -2.10603 -2.96547 -2.64999 
153 Ge 72.64 1 6.17574 42.1945 56.801 -0.0997395 0.257113 0.131756 4.15304 3.00216 2.39372 
154 Ge 72.64 1 11.255 17.1765 55.1934 0.122842 -0.139354 0.0784546 1.02372 -1.28899 -0.530333 
155 Ge 72.64 1 3.71812 3.26752 14.8478 -0.339652 0.0145457 -0.172523 -1.117 -1.6678 2.60609 
156 Ge 72.64 1 8.88604 3.15896 2.5626 0.595746 -0.140236 0.0524601 -2.61559 -0.444741 0.730635 
157 Ge 72.64 1 5.69768 39.5509 11.894 0.107074 -0.326594 0.0396029 -1.39907 -2.07237 -0.139499 
158 Ge 72.64 1 6.24576 27.0072 5.52757 0.110986 0.112065 -0.114415 4.33605 -0.894121 -0.877358 
159 Ge 72.64 1 9.74861 21.819 26.7385 0.104152 -0.518887 -0.0109011 5.36603 1.83546 1.11982 
160 Ge 72.64 1 72.4256 54.5145 2.56438 0.378659 0.234766 -0.0467207 1.48116 -0.931336 0.0726523 
161 Ge 72.64 1 3.07858 32.9399 26.7074 0.0140459 -0.342224 0.0884942 2.16364 -0.537012 2.77808 
162 Ge 72.64 1 9.51027 18.3603 53.1942 -0.402129 -0.134313 -0.0437695 2.67758 1.63823 1.07508 
163 Ge 72.64 1 9.24747 30.2099 30.0873 -0.0815969 0.0332189 0.242561 -1.61417 2.5747 -0.664954 
164 Ge 72.64 1 2.8734 39.2403 20.8626 0.149663 -0.415626 -0.27619 -1.329 0.957066 3.57918 
165 Ge 72.64 1 11.4189 11.5166 50.6184 0.169177 0.281905 -0.257112 0.0657304 4.87877 -1.07357 
166 Ge 72.64 1 8.73709 36.1434 60.4914 0.395402 -0.138839 -0.30784 -1.40767 -0.550926 -3.82178 
167 Ge 72.64 1 72.7903 45.7853 5.57786 -0.257353 -0.295228 0.120247 0.877019 1.0233 -0.650222 
168 Ge 72.64 1 9.03861 9.18374 20.6777 -0.112226 -0.0957119 -0.117426 1.2987 0.892308 0.711832 
169 Ge 72.64 1 2.79026 36.1372 11.4807 0.0870201 -0.246447 0.37574 0.613094 1.58283 -4.18971 
170 Ge 72.64 1 2.99635 49.0455 5.60075 0.137797 -0.295471 -0.0980602 0.293955 -1.37205 -2.27761 
171 Ge 72.64 1 11.3509 24.9437 38.5068 -0.101984 -0.0214818 -0.074348 0.0958912 -3.08223 0.429938 
172 Ge 72.64 1 11.3885 30.9212 45.0505 0.178753 0.0441227 -0.181884 2.64512 -3.18542 0.028496 
173 Ge 72.64 1 2.38871 36.1937 17.7755 0.169885 0.253447 0.154276 -0.947344 3.82273 -0.661031 
174 Ge 72.64 1 6.69284 15.0295 60.0959 -0.742531 -0.0281596 -0.223743 0.736684 0.154576 4.34067 
175 Ge 72.64 1 9.01534 21.274 33.0493 0.0933921 -0.0294606 0.0880966 1.5745 0.382958 -0.242412 
176 Ge 72.64 1 5.95494 54.5924 26.9692 -0.2647 -0.0203832 0.313824 0.882899 -2.44379 0.95899 
177 Ge 72.64 1 14.8636 49.8012 36.5158 0.106703 -0.0128773 0.0962216 1.51888 -0.701234 0.00191952 
178 Ge 72.64 1 5.94895 18.5663 26.4398 -0.0179449 -0.447208 -0.0136621 -2.53528 -3.01985 -0.897368 
179 Ge 72.64 1 8.88596 12.3495 35.7781 -0.0813986 0.149507 -0.159655 0.835025 0.922593 0.491055 
180 Ge 72.64 1 9.35013 54.6846 5.14132 -0.333692 0.0455865 0.0889291 0.762676 -0.997948 2.12345 
181 Ge 72.64 1 8.95858 39.3714 32.4543 0.127822 0.0909055 0.0254634 0.388436 0.770932 -6.04008 
182 Ge 72.64 1 6.42115 21.2464 47.8501 -0.100683 -0.0826152 0.0847477 3.998 -3.3105 0.38019 
183 Ge 72.64 1 9.81696 51.4729 38.8252 -0.129046 -0.0211022 -0.0585701 4.93078 2.50266 0.470483 
184 Ge 72.64 1 3.04601 51.742 14.5137 0.846176 -0.427734 -0.0764474 -1.99285 2.17551 -1.72129 
185 Ge 72.64 1 8.59296 42.363 17.7977 0.111405 0.108864 0.0382613 -1.89776 -0.872454 1.07928 
186 Ge 72.64 1 9.00546 45.3695 38.5566 0.393085 -0.253578 0.695771 3.46548 0.118512 -2.06091 
187 Ge 72.64 1 12.3848 45.4488 36.0139 -0.114345 -0.380824 -0.0204611 -1.59586 -0.485929 -3.25862 
188 Ge 72.64 1 6.23889 9.23136 5.12076 -0.17414 -0.13042 0.00529301 1.61268 -0.879196 3.17135 
189 Ge 72.64 1 9.06719 49.2146 59.9758 0.0425528 -1.16295 0.722917 0.666974 1.32817 2.67754 
190 Ge 72.64 1 8.91612 48.0804 41.8733 0.900534 0.157409 0.182054 -0.0853007 0.066113 -0.918046 
191 Ge 72.64 1 5.60413 21.4349 41.6201 0.0941558 0.0278414 -0.00593939 -4.58531 -3.72906 3.99114 
192 Ge 72.64 1 11.7882 52.9081 6.24223 0.406627 -0.197517 0.00143741 2.28114 -1.79787 -0.591545 
193 Ge 72.64 1 6.5306 48.9596 2.95029 0.302109 -0.237583 -0.697884 0.587849 0.943632 -2.08988 
194 Ge 72.64 1 3.48447 6.19866 11.8265 -0.33032 -0.230009 -0.197202 -2.51407 3.05785 -2.61341 
195 Ge 72.64 1 5.61041 51.8807 17.599 0.334873 -0.143446 0.0524161 2.08301 -0.290755 3.25373 
196 Ge 72.64 1 8.99212 30.4305 12.0227 -0.483182 -0.105648 -0.367419 0.60753 -1.28731 -3.09078 
197 Ge 72.64 1 9.4164 15.2962 14.2774 -0.00346924 -0.268994 0.0341248 -0.254041 -2.863 1.72186 
198 Ge 72.64 1 0.87519 33.2003 23.6629 0.0692973 -0.264975 0.232028 -0.767786 -0.311399 -0.962021 
199 Ge 72.64 1 3.31259 52.4266 8.07556 -0.0110964 -0.342177 0.29475 -1.39915 -3.07811 -1.57841 
200 Ge 72.64 1 3.27267 15.5553 2.61129 0.0262396 -0.436527 0.229313 -0.932607 0.446906 -0.583971 
201 Ge 72.64 1 71.9049 58.6749 23.2999 -0.0619941 -0.197585 -0.0379998 2.31684 3.1042 -1.95083 
202 Ge 72.64 1 5.64044 60.4093 50.9874 -0.155165 -0.0922729 -0.179804 -0.960172 2.25234 0.326307 
203 Ge 72.64 1 0.330511 21.2087 35.6179 0.167388 0.247064 0.255429 1.75492 -0.901149 -3.05162 
204 Ge 72.64 1 3.49344 30.3643 36.1359 -0.357015 0.318098 -0.358857 -0.0413691 0.633101 1.04525 
205 Ge 72.64 1 12.2815 39.0151 48.4904 0.286195 0.535195 -0.626294 0.953471 0.0582983 -1.94312 
206 Ge 72.64 1 9.47163 21.0281 20.8366 0.105211 0.58633 -0.0605492 1.55275 3.88198 0.185957 
207 Ge 72.64 1 3.12471 12.4331 17.5058 0.00388887 0.161542 0.44526 -3.43574 -0.224295 -2.71083 
208 Ge 72.64 1 0.630879 21.4872 17.5953 -0.0371257 -0.326908 -0.0629634 1.18818 0.414186 -3.94669 
209 Ge 72.64 1 0.368335 15.4958 17.3901 -0.0186823 -0.11348 0.492153 -2.38739 2.08222 0.921087 
210 Ge 72.64 1 9.28439 39.4867 51.1415 -0.26027 -0.204785 -0.120303 1.14486 0.794843 0.451014 
211 Ge 72.64 1 5.83303 36.2659 27.0925 0.326299 -0.268111 -0.455354 -1.92579 0.440939 -3.2739 
212 Ge 72.64 1 9.31863 35.9719 47.801 -0.914736 0.283245 0.332084 1.78932 2.23604 -0.975697 
213 Ge 72.64 1 12.0639 11.7948 41.6042 -0.356989 0.35175 0.06388 -0.683791 -3.23743 0.0431872 
214 Ge 72.64 1 6.29289 17.7503 2.20184 0.212029 0.336405 0.798169 1.21015 -1.34114 2.07183 
215 Ge 72.64 1 11.8435 30.6006 3.36512 -0.403384 -0.132355 -0.452596 -1.73526 0.600777 1.69114 
216 Ge 72.64 1 6.1333 48.5948 57.1066 -0.0469969 -0.667376 -0.19067 1.55789 -0.837273 0.195251 
217 Ge 72.64 1 3.09172 30.2983 17.7109 -0.170997 -0.146829 -0.0674996 -1.03338 -2.09572 -0.632044 
218 Ge 72.64 1 9.30841 54.624 11.2149 -0.260403 0.0916979 -0.0880699 -2.30668 -2.55076 2.02704 
219 Ge 72.64 1 5.82091 60.5803 26.9294 0.0863395 0.102713 -0.318641 1.9027 2.62986 -1.2573 
220 Ge 72.64 1 0.533194 45.2698 47.4137 0.0519367 0.484966 -0.259514 1.05063 -0.123801 0.629687 
221 Ge 72.64 1 6.00844 42.1001 26.3929 0.200443 0.227189 0.320507 3.23661 2.1333 -0.979896 
222 Ge 72.64 1 6.52664 32.8378 35.9523 -0.314329 0.351776 0.0306129 4.45249 2.95881 -5.1237 
223 Ge 72.64 1 3.41791 21.2585 8.70539 -0.34734 -0.0500573 -0.0239032 1.71949 0.252209 -1.07816 
224 Ge 72.64 1 8.63297 54.7212 30.0467 -0.130386 -0.226301 -0.347929 -0.613007 -1.72016 1.15606 
225 Ge 72.64 1 6.28131 30.8552 8.37736 0.311413 -0.527343 0.0628702 0.150733 0.227115 -0.44714 
226 Ge 72.64 1 71.3749 46.9291 38.6039 -0.0108869 0.053463 0.218503 -2.22771 -2.30344 5.718 
227 Ge 72.64 1 3.24546 6.06171 59.7797 -0.2049 -0.202305 -0.0487564 -1.15944 -1.37957 -2.53683 
228 Ge 72.64 1 2.79178 21.3934 39.0092 0.452505 -0.00672515 -0.0918341 -2.17968 2.26597 -2.86012 
229 Ge 72.64 1 3.16089 35.9283 41.7633 0.100023 0.11878 0.267954 -0.96861 1.25999 0.303175 
230 Ge 72.64 1 6.20317 59.796 2.53652 -0.169505 0.380334 0.156131 -2.12177 -1.02715 0.171479 
231 Ge 72.64 1 9.52905 42.182 41.7815 0.237351 -0.0122695 -0.326467 1.41273 -3.05335 2.77297 
232 Ge 72.64 1 3.04734 24.4641 47.8822 0.304592 0.063069 0.268803 0.943086 -0.273941 -0.785286 
233 Ge 72.64 1 11.9343 20.0297 11.0966 -0.497391 -0.751089 0.822678 -0.0971182 3.55477 1.14802 
234 Ge 72.64 1 2.93143 53.9617 48.049 0.47221 0.371437 0.0593891 -0.693509 1.61821 -1.27223 
235 Ge 72.64 1 5.75349 6.07275 44.7009 -0.770836 0.246269 0.0490782 -3.08613 -0.469937 -2.53606 
236 Ge 72.64 1 8.96404 6.26358 29.9467 0.225259 0.19975 -0.0355345 3.14314 1.68431 1.70803 
237 Ge 72.64 1 8.88255 60.3782 54.0476 -0.235478 -0.367378 -0.251894 -3.9584 -0.560088 -1.8538 
238 Ge 72.64 1 8.91102 8.86408 50.2226 -0.695117 0.12981 -0.124318 1.14088 -4.0563 0.608629 
239 Ge 72.64 1 8.468 39.6076 14.8509 -0.1412 -0.295674 -0.0418019 -4.14378 -2.41726 1.9203 
240 Ge 72.64 1 2.77729 36.2003 29.8498 0.00459376 -0.106671 0.11431 -1.54798 -0.872646 -1.82626 
241 Ge 72.64 1 3.0129 45.4467 14.5523 -0.0202259 0.319176 0.117839 1.27287 -0.490254 3.22383 
242 Ge 72.64 1 2.91152 3.47882 20.9299 0.391463 0.383206 0.0200867 2.45744 -0.494777 -0.156289 
243 Ge 72.64 1 9.38566 36.1431 41.8507 -0.798439 -0.072226 0.0519599 4.81232 0.0749232 3.35621 
244 Ge 72.64 1 11.6587 2.84783 53.7286 -0.0777892 0.413757 0.463519 -1.42956 0.67754 -3.6672 
245 Ge 72.64 1 2.91352 18.156 29.2287 0.267477 -0.0386566 -0.176469 -2.78753 1.87365 -2.80758 
246 Ge 72.64 1 3.03593 9.00948 8.31243 0.416758 0.0304319 -0.107148 2.73112 0.182978 -4.43984 
247 Ge 72.64 1 8.29327 51.9462 32.3311 0.347065 -0.430186 0.0682338 -1.39301 1.44089 0.744629 
248 Ge 72.64 1 6.21076 12.162 20.0692 -0.256365 0.545815 0.142225 3.09069 0.202724 -3.65536 
249 Ge 72.64 1 3.27964 36.1177 23.7622 0.105716 -0.0335983 0.0665347 -0.848479 2.0682 2.44272 
250 Ge 72.64 1 2.86294 36.7083 60.1925 0.699936 -0.300576 -0.232955 0.340918 -0.872889 -0.292882 
251 Ge 72.64 1 2.79208 51.3008 56.5012 0.275324 0.0209799 0.00742719 -2.39598 3.2709 -2.86434 
252 Ge 72.64 1 72.2755 45.3179 17.5437 0.0491817 0.176759 0.140229 0.624101 1.64824 -0.842258 
253 Ge 72.64 1 70.6425 2.89264 8.63436 -0.241426 -0.117685 0.0973759 -0.936895 -3.2111 2.138 
254 Ge 72.64 1 2.93046 4.8663 37.9338 0.22671 -0.0635611 -0.0445669 -1.14666 1.50252 -1.01885 
255 Ge 72.64 1 0.592269 24.9098 32.8581 -0.070596 -0.191391 0.157647 3.50558 1.35652 -1.47397 
256 Ge 72.64 1 2.82981 12.7124 23.9087 -0.0234932 0.275085 0.150021 1.62039 1.43628 -0.122234 
257 Ge 72.64 1 12.2786 39.7585 60.0704 -0.502462 -0.0269029 -0.207943 -1.97665 -0.0203915 -0.982417 
258 Ge 72.64 1 6.35481 15.1143 41.5928 -0.649767 0.255452 -0.169692 -0.0331555 2.56256 1.91921 
259 Ge 72.64 1 11.9976 33.4913 29.6505 -0.128245 -0.200699 -0.503205 1.83039 2.09324 3.40532 
260 Ge 72.64 1 6.44733 51.5252 5.53815 -0.156073 0.436799 0.261102 -2.3932 0.108736 -1.2982 
261 Ge 72.64 1 9.63608 26.6829 20.7361 -0.105212 0.389236 0.291922 0.551056 0.305575 0.686319 
262 Ge 72.64 1 9.1157 23.8519 17.7909 0.261146 -0.0624641 -0.0237929 -0.166003 -0.810777 -0.505795 
263 Ge 72.64 1 10.9737 9.40996 46.8644 -0.345657 0.160433 0.140714 -2.21499 -0.395951 0.224085 
264 Ge 72.64 1 6.40807 60.4022 8.54144 -0.210693 0.321738 -0.113679 1.15416 1.46529 3.30949 
265 Ge 72.64 1 9.29127 45.117 56.9305 -0.150408 0.0715879 -0.145631 -0.360519 0.528665 -4.13125 
266 Ge 72.64 1 9.59515 27.0974 51.0743 -0.156929 0.528087 -0.550695 2.0217 2.10484 -1.11645 
267 Ge 72.64 1 12.0853 60.5883 32.4049 0.137768 -0.202515 0.371275 0.0811745 -1.8812 2.3557 
268 Ge 72.64 1 2.75507 45.3589 20.6437 -0.214178 -0.106429 0.0367071 -3.33267 -1.66439 2.83051 
269 Ge 72.64 1 6.45026 12.4073 32.6443 0.154512 -0.0650435 -0.0683132 3.21094 2.07196 1.7925 
270 Ge 72.64 1 8.95614 45.8432 32.9226 0.269584 0.121786 -0.517927 5.43974 -5.45387 -0.36431 
271 Ge 72.64 1 2.88348 30.1923 30.2697 0.556539 0.175265 0.0770958 1.01209 1.26164 2.46129 
272 Ge 72.64 1 11.5867 8.82884 11.7041 0.725073 0.316149 -0.36822 0.407031 0.469124 2.7733 
273 Ge 72.64 1 13.6744 19.6222 59.2753 0.0857941 -0.260017 0.168574 -2.71221 -2.21167 -0.819537 
274 Ge 72.64 1 8.94083 60.4278 47.7176 -0.0650601 -0.0752899 0.149832 -0.457883 -0.667209 -0.633944 
275 Ge 72.64 1 2.99956 39.7753 2.6404 -0.170438 -0.0446197 0.221894 1.01389 0.188549 -4.19199 
276 Ge 72.64 1 72.2566 50.2759 35.479 -0.173724 -0.116969 0.105776 2.10232 0.0901279 0.724128 
277 Ge 72.64 1 9.30052 30.3331 54.3462 -0.155853 0.344174 -0.257248 -0.258035 -0.224451 1.46097 
278 Ge 72.64 1 8.75882 9.13275 39.1354 -0.443858 0.428754 0.216275 -1.93886 2.36345 2.60426 
279 Ge 72.64 1 9.221 21.6141 39.029 -0.759004 -0.0459908 -0.277339 3.30042 -1.31297 -1.49312 
280 Ge 72.64 1 8.81823 54.0957 54.0198 0.126009 0.381985 -0.0234794 1.13077 1.18217 -1.86934 
281 Ge 72.64 1 12.4315 33.3621 17.7673 -0.102861 0.272434 -0.00639979 -4.87767 0.175558 1.88717 
282 Ge 72.64 1 2.79804 51.4282 50.9516 0.946757 0.242371 0.118514 -0.0607121 -1.99595 2.07048 
283 Ge 72.64 1 8.63566 48.3217 17.5472 0.127094 -0.121087 -0.0282148 0.55392 1.62329 -0.890556 
284 Ge 72.64 1 6.76557 39.3236 54.2669 -0.0158495 -0.382228 -0.351145 1.00929 2.8735 3.24872 
285 Ge 72.64 1 9.52418 39.4206 8.82259 -0.0595452 0.110748 0.174878 3.08634 -3.53388 0.318289 
286 Ge 72.64 1 3.1126 30.379 42.0734 0.245027 -0.105347 0.30825 1.70859 0.748906 -0.712104 
287 Ge 72.64 1 11.2687 21.919 51.1295 0.375704 -0.383412 0.0648645 -0.234318 1.04732 0.68523 
288 Ge 72.64 1 3.51302 54.9941 11.006 0.0741061 0.137101 -0.0182876 0.200092 2.91188 -1.72793 
289 Ge 72.64 1 8.86727 57.7402 21.2088 -0.340743 -0.413267 -0.167373 0.400366 -0.469964 -1.34485 
290 Ge 72.64 1 12.4001 39.7624 5.93717 -0.160387 -0.319544 0.318204 -0.4454 -0.979603 0.4807 
291 Ge 72.64 1 6.57192 24.1557 20.6909 0.315642 0.409924 0.142809 0.332883 -0.223005 -0.997876 
292 Ge 72.64 1 6.12982 45.3628 54.1228 0.215635 0.111989 -0.911353 -0.934669 -1.64037 -1.30037 
293 Ge 72.64 1 6.23325 27.1672 29.8904 0.276335 0.358555 -0.0926993 2.04066 2.5711 -1.53917 
294 Ge 72.64 1 2.6301 9.17936 50.9613 -0.195732 -0.0200052 -0.00668785 0.362146 -0.816328 -3.53454 
295 Ge 72.64 1 9.36115 12.6321 29.6785 -0.281096 -0.430284 0.112875 2.63503 -2.19706 1.39671 
296 Ge 72.64 1 12.8986 36.5499 25.2219 -0.0631117 0.113919 0.260969 -2.03977 1.58932 2.94811 
297 Ge 72.64 1 9.20876 15.0514 8.48525 0.578755 -0.251145 -0.166657 0.773281 0.328913 0.832794 
298 Ge 72.64 1 8.68333 24.3471 41.8328 -0.629295 -0.341731 -0.0512388 3.11835 1.8052 -3.80672 
299 Ge 72.64 1 2.99711 18.2723 11.6596 -0.0632403 0.17633 -0.368776 -2.48002 -2.67678 -0.506339 
300 Ge 72.64 1 6.38918 11.8156 2.43254 0.386674 -0.0854982 0.0242253 2.22079 0.88673 3.09187 
301 Ge 72.64 1 11.7379 47.9505 21.9518 -0.0942452 -0.0498671 0.221292 0.847831 3.74005 -2.9432 
302 Ge 72.64 1 8.65788 3.28686 39.0398 -0.0527614 -0.075462 -0.753476 -2.85235 -2.37265 -3.71008 
303 Ge 72.64 1 9.23016 24.7093 23.9659 0.100769 -0.575658 -0.195727 -0.20116 0.334141 -0.0865126 
304 Ge 72.64 1 6.10136 18.6718 38.5023 -0.198585 0.360105 -0.0665347 -2.04148 -0.40406 -0.12823 
305 Ge 72.64 1 2.92865 21.532 32.8353 0.282587 0.125692 0.0944789 1.60238 2.4559 -0.567444 
306 Ge 72.64 1 3.30872 15.2492 20.4732 0.51132 -0.406887 0.0524943 -0.0079877 0.186823 0.926787 
307 Ge 72.64 1 11.9508 57.7429 29.5131 -0.0406156 -0.0974819 -0.0663481 0.1957 1.7311 -5.00782 
308 Ge 72.64 1 12.0709 8.75993 36.1763 0.29616 -0.586691 0.0591775 3.33079 1.29846 1.25027 
309 Ge 72.64 1 3.19624 33.0813 2.87176 0.0305008 0.528642 0.00422932 -2.04746 -0.219551 -0.692254 
310 Ge 72.64 1 11.5124 47.8018 26.0553 0.181664 0.287719 -0.303994 -0.147043 1.39554 3.038 
311 Ge 72.64 1 5.85285 45.6042 11.6906 -0.26092 -0.0442226 -0.107685 1.79703 2.59501 -3.07565 
312 Ge 72.64 1 3.00634 41.8423 36.0272 -0.106868 0.207551 0.0965439 0.449051 -5.52914 1.74314 