# Converted from POSCAR to lammps format

3888 atoms
3 atom types

0.000000   51.750511   xlo xhi
0.000000   44.817257   ylo yhi
0.000000   52.462734   zlo zhi

  0.000000    0.000000    0.000000   xy xz yz

Atoms

   1  1      2.295202 1.325135 1.732093
   2  1      19.545372 8.794679 19.219671
   3  1      45.420628 31.203306 36.707249
   4  1      49.733170 8.794679 36.707249
   5  1      0.135612 10.037688 50.727287
   6  1      21.698328 10.037688 15.752130
   7  1      19.545372 8.794679 1.732093
   8  1      21.698328 10.037688 33.239708
   9  1      47.573586 32.446316 50.727287
  10  1      19.542057 6.302917 50.727287
  11  1      17.389101 5.059906 36.707249
  12  1      0.138927 12.529449 1.732093
  13  1      2.291885 13.772459 15.752130
  14  1      43.264355 12.529449 1.732093
  15  1      19.542057 6.302917 33.239708
  16  1      45.417316 13.772459 15.752130
  17  1      19.545372 8.794679 36.707249
  18  1      21.698328 10.037688 50.727287
  19  1      0.135612 10.037688 33.239708
  20  1      23.857914 16.264221 1.732093
  21  1      49.729855 6.302917 50.727287
  22  1      23.854599 13.772459 50.727287
  23  1      21.701643 12.529449 36.707249
  24  1      45.417316 13.772459 33.239708
  25  1      43.264355 12.529449 19.219671
  26  1      49.733170 8.794679 1.732093
  27  1      0.135612 10.037688 15.752130
  28  1      23.854599 13.772459 33.239708
  29  1      21.701643 12.529449 19.219671
  30  1      45.420628 31.203306 19.219671
  31  1      47.573586 32.446316 33.239708
  32  1      23.854599 13.772459 15.752130
  33  1      21.701643 12.529449 1.732093
  34  1      49.733170 8.794679 19.219671
  35  1      17.389101 5.059906 19.219671
  36  1      26.010872 17.507231 15.752130
  37  1      47.576900 34.938080 1.732093
  38  1      0.138927 12.529449 19.219671
  39  1      36.792229 43.650631 33.239708
  40  1      2.295200 31.203306 36.707249
  41  1      2.295200 16.264221 19.219671
  42  1      4.448154 17.507231 33.239708
  43  1      36.792229 43.650631 15.752130
  44  1      34.639271 42.407619 1.732093
  45  1      41.108086 8.794679 36.707249
  46  1      47.576900 34.938080 36.707249
  47  1      34.635956 39.915859 50.727287
  48  1      32.483002 38.672848 36.707249
  49  1      2.295200 16.264221 36.707249
  50  1      4.448154 17.507231 50.727287
  51  1      34.635956 39.915859 33.239708
  52  1      32.483002 38.672848 19.219671
  53  1      49.729855 36.181087 50.727287
  54  1      43.261044 10.037688 50.727287
  55  1      34.639271 42.407619 36.707249
  56  1      36.792229 43.650631 50.727287
  57  1      19.542057 6.302917 15.752130
  58  1      17.389101 5.059906 1.732093
  59  1      2.291885 13.772459 33.239708
  60  1      17.385786 2.568145 50.727287
  61  1      15.232829 1.325135 36.707249
  62  1      0.138927 12.529449 36.707249
  63  1      2.291885 13.772459 50.727287
  64  1      17.385786 2.568145 33.239708
  65  1      15.232829 1.325135 19.219671
  66  1      47.576900 34.938080 19.219671
  67  1      17.385786 2.568145 15.752130
  68  1      15.232829 1.325135 1.732093
  69  1      49.729855 36.181087 33.239708
  70  1      2.295200 16.264221 1.732093
  71  1      4.448154 17.507231 15.752130
  72  1      49.729855 36.181087 15.752130
  73  1      43.261044 10.037688 33.239708
  74  1      47.576897 5.059906 36.707249
  75  1      45.420628 31.203306 1.732093
  76  1      43.261040 24.976774 50.727287
  77  1      34.635956 32.446316 33.239708
  78  1      32.482998 31.203306 19.219671
  79  1      13.076561 42.407619 19.219671
  80  1      15.229515 43.650631 33.239708
  81  1      34.635956 32.446316 15.752130
  82  1      41.108086 23.733765 36.707249
  83  1      32.482998 31.203306 1.732093
  84  1      43.264359 27.468534 1.732093
  85  1      32.479683 28.711544 50.727287
  86  1      30.326729 27.468534 36.707249
  87  1      13.076561 42.407619 36.707249
  88  1      15.229515 43.650631 50.727287
  89  1      45.417313 28.711544 15.752130
  90  1      47.573586 17.507231 15.752130
  91  1      32.482998 31.203306 36.707249
  92  1      34.635956 32.446316 50.727287
  93  1      15.229515 43.650631 15.752130
  94  1      36.795544 38.672848 1.732093
  95  1      13.073242 39.915859 33.239708
  96  1      41.108086 23.733765 19.219671
  97  1      36.792229 36.181087 50.727287
  98  1      34.639271 34.938080 36.707249
  99  1      43.261040 24.976774 33.239708
 100  1      10.920288 38.672848 36.707249
 101  1      13.073242 39.915859 50.727287
 102  1      36.792229 36.181087 33.239708
 103  1      34.639271 34.938080 19.219671
 104  1      47.573586 17.507231 33.239708
 105  1      45.420628 16.264221 19.219671
 106  1      36.792229 36.181087 15.752130
 107  1      34.639271 34.938080 1.732093
 108  1      13.076561 42.407619 1.732093
 109  1      32.479683 28.711544 33.239708
 110  1      47.573586 32.446316 15.752130
 111  1      30.326729 27.468534 19.219671
 112  1      45.420628 1.325135 1.732093
 113  1      43.264359 27.468534 36.707249
 114  1      45.417313 28.711544 50.727287
 115  1      28.167143 21.242002 33.239708
 116  1      26.014185 19.998993 19.219671
 117  1      47.576897 5.059906 1.732093
 118  1      49.729855 6.302917 15.752130
 119  1      43.264355 12.529449 36.707249
 120  1      28.167143 21.242002 15.752130
 121  1      26.010872 17.507231 50.727287
 122  1      23.857914 16.264221 36.707249
 123  1      47.576897 5.059906 19.219671
 124  1      49.729855 6.302917 33.239708
 125  1      26.010872 17.507231 33.239708
 126  1      23.857914 16.264221 19.219671
 127  1      26.014185 19.998993 1.732093
 128  1      45.417316 13.772459 50.727287
 129  1      26.014185 19.998993 36.707249
 130  1      28.167143 21.242002 50.727287
 131  1      32.479683 28.711544 15.752130
 132  1      30.326729 27.468534 1.732093
 133  1      47.573582 2.568145 15.752130
 134  1      30.323414 24.976774 50.727287
 135  1      28.170458 23.733765 36.707249
 136  1      43.264359 27.468534 19.219671
 137  1      45.417313 28.711544 33.239708
 138  1      45.420628 1.325135 19.219671
 139  1      47.573582 2.568145 33.239708
 140  1      30.323414 24.976774 33.239708
 141  1      28.170458 23.733765 19.219671
 142  1      30.323414 24.976774 15.752130
 143  1      28.170458 23.733765 1.732093
 144  1      45.420628 1.325135 36.707249
 145  1      47.573582 2.568145 50.727287
 146  1      45.420628 16.264221 1.732093
 147  1      4.451473 19.998993 1.732093
 148  1      34.635956 39.915859 15.752130
 149  1      32.483002 38.672848 1.732093
 150  1      13.076561 34.938080 19.219671
 151  1      15.229515 36.181087 33.239708
 152  1      17.385786 10.037688 15.752130
 153  1      15.232830 8.794679 1.732093
 154  1      41.104774 6.302917 15.752130
 155  1      38.951813 5.059906 1.732093
 156  1      34.635956 2.568145 33.239708
 157  1      15.229514 6.302917 50.727287
 158  1      13.076561 34.938080 36.707249
 159  1      15.229515 36.181087 50.727287
 160  1      15.229514 6.302917 33.239708
 161  1      13.076558 5.059906 19.219671
 162  1      32.482998 1.325135 36.707249
 163  1      34.635956 2.568145 50.727287
 164  1      13.076558 5.059906 36.707249
 165  1      15.232830 8.794679 19.219671
 166  1      17.385786 10.037688 33.239708
 167  1      32.482998 1.325135 19.219671
 168  1      38.951813 5.059906 19.219671
 169  1      19.542057 13.772459 50.727287
 170  1      17.389101 12.529449 36.707249
 171  1      32.482998 1.325135 1.732093
 172  1      10.920284 31.203306 36.707249
 173  1      13.073242 32.446316 50.727287
 174  1      19.542057 13.772459 33.239708
 175  1      17.389101 12.529449 19.219671
 176  1      34.635956 2.568145 15.752130
 177  1      19.542057 13.772459 15.752130
 178  1      17.389101 12.529449 1.732093
 179  1      13.076561 34.938080 1.732093
 180  1      15.229515 36.181087 15.752130
 181  1      17.385786 10.037688 50.727287
 182  1      15.232830 8.794679 36.707249
 183  1      15.232826 38.672848 1.732093
 184  1      41.104774 6.302917 33.239708
 185  1      15.229514 6.302917 15.752130
 186  1      17.385780 39.915859 15.752130
 187  1      19.542053 43.650631 15.752130
 188  1      32.479687 43.650631 15.752130
 189  1      30.326727 42.407619 1.732093
 190  1      34.639271 5.059906 19.219671
 191  1      36.792229 6.302917 33.239708
 192  1      30.323414 39.915859 50.727287
 193  1      17.389099 42.407619 1.732093
 194  1      28.170456 38.672848 36.707249
 195  1      19.542053 43.650631 33.239708
 196  1      30.323414 39.915859 33.239708
 197  1      28.170456 38.672848 19.219671
 198  1      38.948502 2.568145 33.239708
 199  1      36.795544 1.325135 19.219671
 200  1      34.639271 5.059906 36.707249
 201  1      17.389099 42.407619 19.219671
 202  1      30.326727 42.407619 19.219671
 203  1      32.479687 43.650631 33.239708
 204  1      36.795544 1.325135 36.707249
 205  1      13.073243 2.568145 50.727287
 206  1      10.920287 1.325135 36.707249
 207  1      15.232826 38.672848 19.219671
 208  1      17.385780 39.915859 33.239708
 209  1      13.073243 2.568145 33.239708
 210  1      10.920287 1.325135 19.219671
 211  1      38.948502 2.568145 50.727287
 212  1      34.639271 5.059906 1.732093
 213  1      36.792229 6.302917 15.752130
 214  1      13.073243 2.568145 15.752130
 215  1      10.920287 1.325135 1.732093
 216  1      15.232826 38.672848 36.707249
 217  1      17.385780 39.915859 50.727287
 218  1      32.479687 43.650631 50.727287
 219  1      30.326727 42.407619 36.707249
 220  1      13.076558 5.059906 1.732093
 221  1      13.073242 32.446316 33.239708
 222  1      19.545372 16.264221 1.732093
 223  1      21.698328 17.507231 15.752130
 224  1      28.170458 31.203306 19.219671
 225  1      6.607742 23.733765 1.732093
 226  1      8.760696 24.976774 15.752130
 227  1      30.323414 32.446316 15.752130
 228  1      28.170458 31.203306 1.732093
 229  1      43.261044 10.037688 15.752130
 230  1      30.323414 32.446316 33.239708
 231  1      41.108086 8.794679 1.732093
 232  1      0.135616 39.915859 50.727287
 233  1      28.167141 28.711544 50.727287
 234  1      26.014187 27.468534 36.707249
 235  1      6.607742 23.733765 19.219671
 236  1      8.760696 24.976774 33.239708
 237  1      28.167141 28.711544 33.239708
 238  1      49.733173 38.672848 36.707249
 239  1      0.135616 39.915859 33.239708
 240  1      28.170458 31.203306 36.707249
 241  1      30.323414 32.446316 50.727287
 242  1      6.604427 21.242002 15.752130
 243  1      49.733173 38.672848 1.732093
 244  1      0.135616 39.915859 15.752130
 245  1      32.479683 36.181087 50.727287
 246  1      30.326729 34.938080 36.707249
 247  1      41.108086 8.794679 19.219671
 248  1      4.451473 19.998993 19.219671
 249  1      6.604427 21.242002 33.239708
 250  1      32.479683 36.181087 33.239708
 251  1      30.326729 34.938080 19.219671
 252  1      32.479683 36.181087 15.752130
 253  1      30.326729 34.938080 1.732093
 254  1      49.733173 38.672848 19.219671
 255  1      4.451473 19.998993 36.707249
 256  1      6.604427 21.242002 50.727287
 257  1      26.014187 27.468534 19.219671
 258  1      6.607742 23.733765 36.707249
 259  1      28.167141 28.711544 15.752130
 260  1      26.014187 27.468534 1.732093
 261  1      23.854599 21.242002 33.239708
 262  1      21.701643 19.998993 19.219671
 263  1      8.764015 27.468534 36.707249
 264  1      10.916969 28.711544 50.727287
 265  1      23.854599 21.242002 15.752130
 266  1      21.701643 19.998993 1.732093
 267  1      21.698328 17.507231 50.727287
 268  1      19.545372 16.264221 36.707249
 269  1      10.920284 31.203306 1.732093
 270  1      13.073242 32.446316 15.752130
 271  1      0.138931 42.407619 36.707249
 272  1      21.698328 17.507231 33.239708
 273  1      19.545372 16.264221 19.219671
 274  1      2.291889 43.650631 50.727287
 275  1      10.920284 31.203306 19.219671
 276  1      2.291889 43.650631 33.239708
 277  1      38.948498 39.915859 15.752130
 278  1      0.138931 42.407619 19.219671
 279  1      23.854599 21.242002 50.727287
 280  1      8.760696 24.976774 50.727287
 281  1      26.010870 24.976774 50.727287
 282  1      23.857916 23.733765 36.707249
 283  1      0.138931 42.407619 1.732093
 284  1      2.291889 43.650631 15.752130
 285  1      8.764015 27.468534 1.732093
 286  1      10.916969 28.711544 15.752130
 287  1      26.010870 24.976774 33.239708
 288  1      23.857916 23.733765 19.219671
 289  1      26.010870 24.976774 15.752130
 290  1      23.857916 23.733765 1.732093
 291  1      41.104774 6.302917 50.727287
 292  1      38.951813 5.059906 36.707249
 293  1      8.764015 27.468534 19.219671
 294  1      10.916969 28.711544 33.239708
 295  1      21.701643 19.998993 36.707249
 296  1      10.920288 38.672848 19.219671
 297  1      36.795544 38.672848 19.219671
 298  1      38.948498 39.915859 33.239708
 299  1      45.417313 6.302917 15.752130
 300  1      30.323412 10.037688 50.727287
 301  1      28.170458 8.794679 36.707249
 302  1      0.138931 27.468534 19.219671
 303  1      30.323412 10.037688 33.239708
 304  1      28.170458 8.794679 19.219671
 305  1      43.264355 5.059906 1.732093
 306  1      43.264355 5.059906 19.219671
 307  1      30.323412 10.037688 15.752130
 308  1      28.170458 8.794679 1.732093
 309  1      30.326731 5.059906 19.219671
 310  1      32.479687 6.302917 33.239708
 311  1      28.167141 6.302917 50.727287
 312  1      26.014187 5.059906 36.707249
 313  1      45.417313 6.302917 33.239708
 314  1      32.479687 6.302917 15.752130
 315  1      30.326729 12.529449 1.732093
 316  1      32.479683 13.772459 15.752130
 317  1      32.483002 16.264221 19.219671
 318  1      28.170460 1.325135 36.707249
 319  1      30.323414 2.568145 50.727287
 320  1      41.108086 1.325135 19.219671
 321  1      34.635956 17.507231 15.752130
 322  1      32.483002 16.264221 1.732093
 323  1      43.261040 2.568145 33.239708
 324  1      32.479683 13.772459 50.727287
 325  1      30.326729 12.529449 36.707249
 326  1      41.108086 1.325135 36.707249
 327  1      43.261040 2.568145 50.727287
 328  1      32.479683 13.772459 33.239708
 329  1      30.326729 12.529449 19.219671
 330  1      2.291889 28.711544 33.239708
 331  1      30.326731 5.059906 1.732093
 332  1      43.264355 5.059906 36.707249
 333  1      34.635956 17.507231 33.239708
 334  1      45.417313 6.302917 50.727287
 335  1      26.014187 5.059906 19.219671
 336  1      45.417313 43.650631 50.727287
 337  1      43.264355 42.407619 36.707249
 338  1      34.635956 10.037688 15.752130
 339  1      45.417313 43.650631 33.239708
 340  1      43.264355 42.407619 19.219671
 341  1      47.576897 12.529449 1.732093
 342  1      47.573582 10.037688 50.727287
 343  1      49.729855 13.772459 15.752130
 344  1      43.264355 42.407619 1.732093
 345  1      0.135616 24.976774 50.727287
 346  1      49.733170 23.733765 36.707249
 347  1      32.483002 8.794679 19.219671
 348  1      34.635956 10.037688 33.239708
 349  1      43.261040 39.915859 50.727287
 350  1      45.417313 43.650631 15.752130
 351  1      45.420628 8.794679 36.707249
 352  1      32.483002 8.794679 1.732093
 353  1      23.857916 1.325135 1.732093
 354  1      2.291889 28.711544 15.752130
 355  1      0.138931 27.468534 1.732093
 356  1      45.420628 8.794679 1.732093
 357  1      28.167141 6.302917 15.752130
 358  1      26.014187 5.059906 1.732093
 359  1      47.573582 10.037688 15.752130
 360  1      30.326731 5.059906 36.707249
 361  1      32.479687 6.302917 50.727287
 362  1      26.010870 2.568145 50.727287
 363  1      23.857916 1.325135 36.707249
 364  1      45.420628 8.794679 19.219671
 365  1      47.573582 10.037688 33.239708
 366  1      26.010870 2.568145 33.239708
 367  1      23.857916 1.325135 19.219671
 368  1      26.010870 2.568145 15.752130
 369  1      28.167141 6.302917 33.239708
 370  1      43.261040 2.568145 15.752130
 371  1      41.108086 1.325135 1.732093
 372  1      32.483002 16.264221 36.707249
 373  1      4.451473 34.938080 36.707249
 374  1      6.604431 36.181087 50.727287
 375  1      43.261040 32.446316 50.727287
 376  1      41.108086 31.203306 36.707249
 377  1      2.295200 31.203306 19.219671
 378  1      47.576900 42.407619 19.219671
 379  1      4.448162 32.446316 33.239708
 380  1      49.729855 43.650631 33.239708
 381  1      41.108086 31.203306 19.219671
 382  1      6.607746 38.672848 1.732093
 383  1      8.760704 39.915859 15.752130
 384  1      43.261040 32.446316 15.752130
 385  1      41.108086 31.203306 1.732093
 386  1      41.104767 28.711544 50.727287
 387  1      43.261040 32.446316 33.239708
 388  1      43.264359 34.938080 1.732093
 389  1      45.417313 36.181087 15.752130
 390  1      43.264359 34.938080 19.219671
 391  1      4.448162 32.446316 50.727287
 392  1      47.573582 39.915859 50.727287
 393  1      47.573582 39.915859 33.239708
 394  1      45.420628 38.672848 19.219671
 395  1      4.451473 34.938080 1.732093
 396  1      47.573582 39.915859 15.752130
 397  1      45.420628 38.672848 1.732093
 398  1      6.604431 36.181087 15.752130
 399  1      45.417313 36.181087 50.727287
 400  1      43.264359 34.938080 36.707249
 401  1      47.576900 42.407619 1.732093
 402  1      49.729855 43.650631 15.752130
 403  1      4.451473 34.938080 19.219671
 404  1      6.604431 36.181087 33.239708
 405  1      45.417313 36.181087 33.239708
 406  1      38.951813 27.468534 36.707249
 407  1      6.607746 38.672848 19.219671
 408  1      8.760704 39.915859 33.239708
 409  1      41.104767 28.711544 33.239708
 410  1      8.764015 42.407619 19.219671
 411  1      10.916977 43.650631 33.239708
 412  1      36.792225 21.242002 50.727287
 413  1      34.639271 19.998993 36.707249
 414  1      36.792225 21.242002 33.239708
 415  1      34.639271 19.998993 19.219671
 416  1      28.170460 1.325135 19.219671
 417  1      8.764015 42.407619 36.707249
 418  1      10.916977 43.650631 50.727287
 419  1      36.792225 21.242002 15.752130
 420  1      34.639271 19.998993 1.732093
 421  1      30.323414 2.568145 33.239708
 422  1      2.291889 28.711544 50.727287
 423  1      0.138931 27.468534 36.707249
 424  1      34.635956 17.507231 50.727287
 425  1      36.795544 23.733765 1.732093
 426  1      41.108086 38.672848 36.707249
 427  1      38.948498 24.976774 15.752130
 428  1      28.170460 1.325135 1.732093
 429  1      38.951813 27.468534 19.219671
 430  1      47.576900 42.407619 36.707249
 431  1      49.729855 43.650631 50.727287
 432  1      6.607746 38.672848 36.707249
 433  1      41.104767 28.711544 15.752130
 434  1      38.951813 27.468534 1.732093
 435  1      8.760704 39.915859 50.727287
 436  1      4.448162 32.446316 15.752130
 437  1      38.948498 24.976774 50.727287
 438  1      36.795544 23.733765 36.707249
 439  1      2.295200 31.203306 1.732093
 440  1      8.764015 42.407619 1.732093
 441  1      10.916977 43.650631 15.752130
 442  1      38.948498 24.976774 33.239708
 443  1      36.795544 23.733765 19.219671
 444  1      30.323414 2.568145 15.752130
 445  1      17.389099 42.407619 36.707249
 446  1      47.576897 12.529449 19.219671
 447  1      43.261040 39.915859 33.239708
 448  1      23.857914 8.794679 36.707249
 449  1      26.010870 10.037688 33.239708
 450  1      23.857914 8.794679 19.219671
 451  1      6.607742 31.203306 1.732093
 452  1      8.760700 32.446316 15.752130
 453  1      26.010870 10.037688 15.752130
 454  1      26.010870 10.037688 50.727287
 455  1      23.857914 8.794679 1.732093
 456  1      41.104771 21.242002 15.752130
 457  1      23.854599 6.302917 50.727287
 458  1      21.701643 5.059906 36.707249
 459  1      6.607742 31.203306 19.219671
 460  1      8.760700 32.446316 33.239708
 461  1      23.854599 6.302917 33.239708
 462  1      38.951817 19.998993 1.732093
 463  1      6.604427 28.711544 50.727287
 464  1      4.451473 27.468534 36.707249
 465  1      26.014185 12.529449 1.732093
 466  1      4.451473 27.468534 1.732093
 467  1      30.323414 17.507231 15.752130
 468  1      28.170456 16.264221 1.732093
 469  1      6.604427 28.711544 15.752130
 470  1      28.167141 13.772459 50.727287
 471  1      26.014185 12.529449 36.707249
 472  1      49.729858 21.242002 33.239708
 473  1      4.451473 27.468534 19.219671
 474  1      6.604427 28.711544 33.239708
 475  1      28.167141 13.772459 33.239708
 476  1      26.014185 12.529449 19.219671
 477  1      47.576900 19.998993 19.219671
 478  1      36.795544 16.264221 36.707249
 479  1      38.948498 17.507231 50.727287
 480  1      28.167141 13.772459 15.752130
 481  1      21.701643 5.059906 19.219671
 482  1      38.948498 17.507231 33.239708
 483  1      49.729858 21.242002 15.752130
 484  1      38.951817 19.998993 19.219671
 485  1      47.573586 17.507231 50.727287
 486  1      41.104771 43.650631 33.239708
 487  1      38.951813 42.407619 19.219671
 488  1      45.420628 16.264221 36.707249
 489  1      8.764015 34.938080 36.707249
 490  1      10.916969 36.181087 50.727287
 491  1      38.951813 42.407619 36.707249
 492  1      41.104771 43.650631 15.752130
 493  1      41.108086 23.733765 1.732093
 494  1      43.261040 24.976774 15.752130
 495  1      38.948498 39.915859 50.727287
 496  1      36.795544 38.672848 36.707249
 497  1      10.920288 38.672848 1.732093
 498  1      13.073242 39.915859 15.752130
 499  1      38.951813 42.407619 1.732093
 500  1      41.104771 43.650631 50.727287
 501  1      10.916969 36.181087 33.239708
 502  1      8.764015 34.938080 19.219671
 503  1      6.607742 31.203306 36.707249
 504  1      23.854599 6.302917 15.752130
 505  1      21.701643 5.059906 1.732093
 506  1      8.760700 32.446316 50.727287
 507  1      41.104771 21.242002 33.239708
 508  1      21.698328 2.568145 50.727287
 509  1      19.545372 1.325135 36.707249
 510  1      8.764015 34.938080 1.732093
 511  1      10.916969 36.181087 15.752130
 512  1      21.698328 2.568145 33.239708
 513  1      19.545372 1.325135 19.219671
 514  1      21.698328 2.568145 15.752130
 515  1      19.545372 1.325135 1.732093
 516  1      38.951817 19.998993 36.707249
 517  1      41.104771 21.242002 50.727287
 518  1      47.576900 19.998993 1.732093
 519  1      36.795544 16.264221 19.219671
 520  1      28.170456 16.264221 19.219671
 521  1      30.323414 17.507231 33.239708
 522  1      38.948498 32.446316 50.727287
 523  1      36.795540 31.203306 36.707249
 524  1      34.639271 12.529449 1.732093
 525  1      36.792229 13.772459 15.752130
 526  1      38.948498 32.446316 33.239708
 527  1      36.795540 31.203306 19.219671
 528  1      0.135612 17.507231 33.239708
 529  1      49.733170 16.264221 36.707249
 530  1      38.948498 32.446316 15.752130
 531  1      36.795540 31.203306 1.732093
 532  1      36.792225 28.711544 50.727287
 533  1      34.639271 27.468534 36.707249
 534  1      0.138931 19.998993 1.732093
 535  1      2.291885 21.242002 15.752130
 536  1      0.135612 17.507231 50.727287
 537  1      49.733170 16.264221 19.219671
 538  1      49.733170 23.733765 19.219671
 539  1      38.951813 34.938080 1.732093
 540  1      41.108086 38.672848 19.219671
 541  1      47.576897 12.529449 36.707249
 542  1      43.261040 39.915859 15.752130
 543  1      41.108086 38.672848 1.732093
 544  1      49.729855 13.772459 50.727287
 545  1      41.104771 36.181087 50.727287
 546  1      38.951813 34.938080 36.707249
 547  1      32.483002 8.794679 36.707249
 548  1      34.635956 10.037688 50.727287
 549  1      49.733170 16.264221 1.732093
 550  1      0.135612 17.507231 15.752130
 551  1      41.104771 36.181087 33.239708
 552  1      38.951813 34.938080 19.219671
 553  1      0.135616 24.976774 33.239708
 554  1      41.104771 36.181087 15.752130
 555  1      34.639271 12.529449 19.219671
 556  1      36.792225 28.711544 33.239708
 557  1      34.639271 27.468534 19.219671
 558  1      36.792229 13.772459 33.239708
 559  1      30.326727 19.998993 36.707249
 560  1      49.729858 21.242002 50.727287
 561  1      36.795544 16.264221 1.732093
 562  1      32.479683 21.242002 33.239708
 563  1      30.326727 19.998993 19.219671
 564  1      38.948498 17.507231 15.752130
 565  1      2.295200 23.733765 19.219671
 566  1      4.448154 24.976774 33.239708
 567  1      32.479683 21.242002 15.752130
 568  1      30.326727 19.998993 1.732093
 569  1      47.576900 19.998993 36.707249
 570  1      30.323414 17.507231 50.727287
 571  1      28.170456 16.264221 36.707249
 572  1      2.295200 23.733765 36.707249
 573  1      4.448154 24.976774 50.727287
 574  1      32.479683 21.242002 50.727287
 575  1      49.729855 13.772459 33.239708
 576  1      4.448154 24.976774 15.752130
 577  1      32.482998 23.733765 1.732093
 578  1      0.135616 24.976774 15.752130
 579  1      0.138931 19.998993 19.219671
 580  1      36.792225 28.711544 15.752130
 581  1      34.639271 27.468534 1.732093
 582  1      2.291885 21.242002 33.239708
 583  1      49.733170 23.733765 1.732093
 584  1      34.635956 24.976774 50.727287
 585  1      32.482998 23.733765 36.707249
 586  1      34.639271 12.529449 36.707249
 587  1      0.138931 19.998993 36.707249
 588  1      2.291885 21.242002 50.727287
 589  1      34.635956 24.976774 33.239708
 590  1      32.482998 23.733765 19.219671
 591  1      36.792229 13.772459 50.727287
 592  1      34.635956 24.976774 15.752130
 593  1      2.295200 23.733765 1.732093
 594  1      30.323414 39.915859 15.752130
 595  1      34.639271 42.407619 19.219671
 596  1      19.542053 43.650631 50.727287
 597  1      26.014185 42.407619 36.707249
 598  1      28.167143 43.650631 50.727287
 599  1      10.916973 21.242002 33.239708
 600  1      8.764015 19.998993 19.219671
 601  1      6.607744 1.325135 1.732093
 602  1      8.760701 2.568145 15.752130
 603  1      43.261040 17.507231 50.727287
 604  1      41.108086 16.264221 36.707249
 605  1      6.607744 1.325135 19.219671
 606  1      8.760701 2.568145 33.239708
 607  1      10.916973 21.242002 15.752130
 608  1      28.167143 43.650631 33.239708
 609  1      8.764015 19.998993 1.732093
 610  1      4.448158 39.915859 50.727287
 611  1      6.607744 1.325135 36.707249
 612  1      8.760701 2.568145 50.727287
 613  1      8.760700 17.507231 50.727287
 614  1      8.764015 5.059906 1.732093
 615  1      10.916972 6.302917 15.752130
 616  1      6.607742 16.264221 36.707249
 617  1      43.261040 17.507231 33.239708
 618  1      41.108086 16.264221 19.219671
 619  1      8.764015 5.059906 19.219671
 620  1      10.916972 6.302917 33.239708
 621  1      2.295200 38.672848 36.707249
 622  1      8.760700 17.507231 33.239708
 623  1      26.014185 42.407619 19.219671
 624  1      8.764015 19.998993 36.707249
 625  1      21.701643 34.938080 19.219671
 626  1      23.854599 36.181087 33.239708
 627  1      13.073242 24.976774 50.727287
 628  1      10.920284 23.733765 36.707249
 629  1      21.701643 34.938080 36.707249
 630  1      23.854599 36.181087 50.727287
 631  1      13.073242 24.976774 33.239708
 632  1      23.857914 38.672848 1.732093
 633  1      26.010870 39.915859 15.752130
 634  1      10.920284 23.733765 19.219671
 635  1      45.417313 21.242002 33.239708
 636  1      43.264355 19.998993 1.732093
 637  1      43.264355 19.998993 19.219671
 638  1      23.857914 38.672848 19.219671
 639  1      26.010870 39.915859 33.239708
 640  1      4.448158 39.915859 33.239708
 641  1      13.073242 24.976774 15.752130
 642  1      10.920284 23.733765 1.732093
 643  1      23.857914 38.672848 36.707249
 644  1      26.010870 39.915859 50.727287
 645  1      28.170456 38.672848 1.732093
 646  1      26.014185 42.407619 1.732093
 647  1      28.167143 43.650631 15.752130
 648  1      10.916973 21.242002 50.727287
 649  1      2.295200 38.672848 19.219671
 650  1      43.264355 19.998993 36.707249
 651  1      6.607742 16.264221 19.219671
 652  1      10.916972 6.302917 50.727287
 653  1      4.451473 42.407619 19.219671
 654  1      6.604431 43.650631 33.239708
 655  1      15.232829 16.264221 19.219671
 656  1      17.385786 17.507231 33.239708
 657  1      41.104771 13.772459 33.239708
 658  1      4.448158 10.037688 50.727287
 659  1      2.295200 8.794679 36.707249
 660  1      15.232829 16.264221 36.707249
 661  1      17.385786 17.507231 50.727287
 662  1      38.951813 12.529449 19.219671
 663  1      17.389101 19.998993 1.732093
 664  1      4.451469 12.529449 1.732093
 665  1      19.542057 21.242002 15.752130
 666  1      2.295200 8.794679 19.219671
 667  1      17.389101 19.998993 19.219671
 668  1      19.542057 21.242002 33.239708
 669  1      41.104771 13.772459 15.752130
 670  1      38.951813 12.529449 1.732093
 671  1      17.389101 19.998993 36.707249
 672  1      19.542057 21.242002 50.727287
 673  1      4.448158 10.037688 15.752130
 674  1      2.295200 8.794679 1.732093
 675  1      19.545372 23.733765 1.732093
 676  1      21.698328 24.976774 15.752130
 677  1      4.448158 10.037688 33.239708
 678  1      8.764015 5.059906 36.707249
 679  1      17.385786 17.507231 15.752130
 680  1      6.604431 13.772459 15.752130
 681  1      4.451473 42.407619 1.732093
 682  1      10.920286 8.794679 1.732093
 683  1      13.073244 10.037688 15.752130
 684  1      8.760700 17.507231 15.752130
 685  1      6.607742 16.264221 1.732093
 686  1      10.920286 8.794679 19.219671
 687  1      13.073244 10.037688 33.239708
 688  1      43.261040 17.507231 15.752130
 689  1      41.108086 16.264221 1.732093
 690  1      6.604431 43.650631 15.752130
 691  1      10.920286 8.794679 36.707249
 692  1      15.232829 16.264221 1.732093
 693  1      13.073244 10.037688 50.727287
 694  1      4.451469 12.529449 36.707249
 695  1      13.076557 12.529449 1.732093
 696  1      15.229515 13.772459 15.752130
 697  1      13.076557 12.529449 19.219671
 698  1      15.229515 13.772459 33.239708
 699  1      6.604431 13.772459 33.239708
 700  1      4.451469 12.529449 19.219671
 701  1      41.104771 13.772459 50.727287
 702  1      38.951813 12.529449 36.707249