# Converted from POSCAR to lammps format

9 atoms
3 atom types

0.000000    4.284065   xlo xhi
0.000000    3.710109   ylo yhi
0.000000   17.652981   zlo zhi

  2.142033    0.000000    0.000000   xy xz yz

Atoms

   1  1      2.142033 1.236703 8.136942
   2  1      0.000000 0.000000 11.797774
   3  2      2.142033 1.236703 2.100367
   4  2      4.284065 2.473406 15.722113
   5  3      0.000000 0.000000 0.023270
   6  3      4.284065 2.473406 3.814557
   7  3      0.000000 0.000000 6.721666
   8  3      4.284065 2.473406 10.354903
   9  3      2.142033 1.236703 13.949211
