<?xml version="1.0" encoding="ISO-8859-1"?>
<modeling>
 <generator>
  <i name="program" type="string">vasp </i>
  <i name="version" type="string">5.4.4.18Apr17-6-g9f103f2a35  </i>
  <i name="subversion" type="string">(build Apr 21 2021 12:29:50) complex            parallel </i>
  <i name="platform" type="string">LinuxIFC </i>
  <i name="date" type="string">2022 02 16 </i>
  <i name="time" type="string">15:13:47 </i>
 </generator>
 <incar>
  <i type="string" name="SYSTEM">ge_ran</i>
  <i type="int" name="ISTART">     0</i>
  <i type="string" name="PREC">a      ! determines the energy</i>
  <i type="int" name="IALGO">    38</i>
  <i type="int" name="ISPIN">     1</i>
  <i type="int" name="ICHARG">     2</i>
  <i type="int" name="NELM">   200</i>
  <i name="EDIFF">      0.00000001</i>
  <i type="int" name="ISIF">     3</i>
  <i type="int" name="ISYM">     2</i>
  <i name="ENCUT">    400.00000000</i>
  <i type="int" name="ISMEAR">     0</i>
  <i name="SIGMA">      0.05000000</i>
  <i type="logical" name="LWAVE"> F  </i>
  <i type="logical" name="LCHARG"> F  </i>
  <v type="int" name="KPOINT_BSE">    -1     0     0     0</v>
  <i type="int" name="NELM">   200</i>
  <i type="string" name="GGA">        PE      ! 91:Perdew-Wang91 | PE:</i>
  <i type="logical" name="LEPSILON"> T  </i>
 </incar>
 <structure name="primitive_cell" >
  <crystal>
   <varray name="basis" >
    <v>       4.23389098       0.00000000       0.00000000 </v>
    <v>       2.11694549       3.66665715       0.00000000 </v>
    <v>       0.00000000      -0.00000000      16.82108059 </v>
   </varray>
   <i name="volume">    261.13426753 </i>
   <varray name="rec_basis" >
    <v>       0.23618936      -0.13636399      -0.00000000 </v>
    <v>      -0.00000000       0.27272798       0.00000000 </v>
    <v>      -0.00000000       0.00000000       0.05944921 </v>
   </varray>
  </crystal>
  <varray name="positions" >
   <v>       0.33333333       0.33333333       0.10107162 </v>
   <v>      -0.33333333      -0.33333333       0.19991905 </v>
   <v>       0.00000000       0.00000000       0.00000000 </v>
   <v>      -0.33333333      -0.33333333      -0.10107162 </v>
   <v>       0.00000000       0.00000000       0.31882486 </v>
   <v>       0.33333333       0.33333333      -0.19991905 </v>
   <v>       0.33333333       0.33333333       0.42174369 </v>
   <v>       0.00000000       0.00000000      -0.31882486 </v>
   <v>      -0.33333333      -0.33333333      -0.42174369 </v>
  </varray>
 </structure>
 <varray name="primitive_index" >
  <v type="int" >        1 </v>
  <v type="int" >        6 </v>
  <v type="int" >        5 </v>
  <v type="int" >        2 </v>
  <v type="int" >        3 </v>
  <v type="int" >        9 </v>
  <v type="int" >        7 </v>
  <v type="int" >        4 </v>
  <v type="int" >        8 </v>
 </varray>
 <kpoints>
  <generation param="Gamma">
   <v type="int" name="divisions">      12       12        3 </v>
   <v name="usershift">      0.00000000       0.00000000       0.00000000 </v>
   <v name="genvec1">      0.08333333      -0.00000000       0.00000000 </v>
   <v name="genvec2">      0.00000000       0.08333333       0.00000000 </v>
   <v name="genvec3">      0.00000000       0.00000000       0.33333333 </v>
   <v name="shift">      0.00000000       0.00000000       0.00000000 </v>
  </generation>
  <varray name="kpointlist" >
   <v>       0.00000000       0.00000000       0.00000000 </v>
   <v>       0.08333333       0.00000000       0.00000000 </v>
   <v>       0.16666667       0.00000000       0.00000000 </v>
   <v>       0.25000000       0.00000000      -0.00000000 </v>
   <v>       0.33333333       0.00000000      -0.00000000 </v>
   <v>       0.41666667       0.00000000      -0.00000000 </v>
   <v>       0.50000000       0.00000000      -0.00000000 </v>
   <v>       0.16666667       0.08333333       0.00000000 </v>
   <v>       0.25000000       0.08333333      -0.00000000 </v>
   <v>       0.33333333       0.08333333       0.00000000 </v>
   <v>       0.41666667       0.08333333       0.00000000 </v>
   <v>       0.50000000       0.08333333      -0.00000000 </v>
   <v>       0.33333333       0.16666667      -0.00000000 </v>
   <v>       0.41666667       0.16666667      -0.00000000 </v>
   <v>       0.50000000       0.16666667      -0.00000000 </v>
   <v>      -0.41666667       0.16666667       0.00000000 </v>
   <v>       0.50000000       0.25000000      -0.00000000 </v>
   <v>      -0.41666667       0.25000000       0.00000000 </v>
   <v>      -0.33333333       0.33333333       0.00000000 </v>
   <v>       0.00000000      -0.00000000       0.33333333 </v>
   <v>       0.08333333       0.00000000       0.33333333 </v>
   <v>       0.16666667       0.00000000       0.33333333 </v>
   <v>       0.25000000       0.00000000       0.33333333 </v>
   <v>       0.33333333       0.00000000       0.33333333 </v>
   <v>       0.41666667       0.00000000       0.33333333 </v>
   <v>       0.50000000       0.00000000       0.33333333 </v>
   <v>      -0.41666667       0.00000000       0.33333333 </v>
   <v>      -0.33333333      -0.00000000       0.33333333 </v>
   <v>      -0.25000000      -0.00000000       0.33333333 </v>
   <v>      -0.16666667       0.00000000       0.33333333 </v>
   <v>      -0.08333333      -0.00000000       0.33333333 </v>
   <v>       0.16666667       0.08333333       0.33333333 </v>
   <v>       0.25000000       0.08333333       0.33333333 </v>
   <v>       0.33333333       0.08333333       0.33333333 </v>
   <v>       0.41666667       0.08333333       0.33333333 </v>
   <v>       0.50000000       0.08333333       0.33333333 </v>
   <v>      -0.41666667       0.08333333       0.33333333 </v>
   <v>      -0.33333333       0.08333333       0.33333333 </v>
   <v>      -0.25000000       0.08333333       0.33333333 </v>
   <v>      -0.16666667       0.08333333       0.33333333 </v>
   <v>       0.33333333       0.16666667       0.33333333 </v>
   <v>       0.41666667       0.16666667       0.33333333 </v>
   <v>       0.50000000       0.16666667       0.33333333 </v>
   <v>      -0.41666667       0.16666667       0.33333333 </v>
   <v>      -0.33333333       0.16666667       0.33333333 </v>
   <v>      -0.25000000       0.16666667       0.33333333 </v>
   <v>       0.50000000       0.25000000       0.33333333 </v>
   <v>      -0.41666667       0.25000000       0.33333333 </v>
   <v>      -0.33333333       0.25000000       0.33333333 </v>
   <v>      -0.33333333       0.33333333       0.33333333 </v>
  </varray>
  <varray name="weights" >
   <v>       0.00231481 </v>
   <v>       0.01388889 </v>
   <v>       0.01388889 </v>
   <v>       0.01388889 </v>
   <v>       0.01388889 </v>
   <v>       0.01388889 </v>
   <v>       0.00694444 </v>
   <v>       0.01388889 </v>
   <v>       0.02777778 </v>
   <v>       0.02777778 </v>
   <v>       0.02777778 </v>
   <v>       0.02777778 </v>
   <v>       0.01388889 </v>
   <v>       0.02777778 </v>
   <v>       0.02777778 </v>
   <v>       0.01388889 </v>
   <v>       0.01388889 </v>
   <v>       0.02777778 </v>
   <v>       0.00462963 </v>
   <v>       0.00462963 </v>
   <v>       0.01388889 </v>
   <v>       0.01388889 </v>
   <v>       0.01388889 </v>
   <v>       0.01388889 </v>
   <v>       0.01388889 </v>
   <v>       0.01388889 </v>
   <v>       0.01388889 </v>
   <v>       0.01388889 </v>
   <v>       0.01388889 </v>
   <v>       0.01388889 </v>
   <v>       0.01388889 </v>
   <v>       0.02777778 </v>
   <v>       0.02777778 </v>
   <v>       0.02777778 </v>
   <v>       0.02777778 </v>
   <v>       0.02777778 </v>
   <v>       0.02777778 </v>
   <v>       0.02777778 </v>
   <v>       0.02777778 </v>
   <v>       0.02777778 </v>
   <v>       0.02777778 </v>
   <v>       0.02777778 </v>
   <v>       0.02777778 </v>
   <v>       0.02777778 </v>
   <v>       0.02777778 </v>
   <v>       0.02777778 </v>
   <v>       0.02777778 </v>
   <v>       0.02777778 </v>
   <v>       0.02777778 </v>
   <v>       0.00925926 </v>
  </varray>
 </kpoints>
 <parameters>
  <separator name="general" >
   <i type="string" name="SYSTEM">ge_ran</i>
   <i type="logical" name="LCOMPAT"> F  </i>
  </separator>
  <separator name="electronic" >
   <i type="string" name="PREC">a</i>
   <i name="ENMAX">    400.00000000</i>
   <i name="ENAUG">    385.84300000</i>
   <i name="EDIFF">      0.00000001</i>
   <i type="int" name="IALGO">    38</i>
   <i type="int" name="IWAVPR">    10</i>
   <i type="int" name="NBANDS">    32</i>
   <i name="NELECT">     48.00000000</i>
   <i type="int" name="TURBO">     0</i>
   <i type="int" name="IRESTART">     0</i>
   <i type="int" name="NREBOOT">     0</i>
   <i type="int" name="NMIN">     0</i>
   <i name="EREF">      0.00000000</i>
   <separator name="electronic smearing" >
    <i type="int" name="ISMEAR">     0</i>
    <i name="SIGMA">      0.05000000</i>
    <i name="KSPACING">      0.50000000</i>
    <i type="logical" name="KGAMMA"> T  </i>
   </separator>
   <separator name="electronic projectors" >
    <i type="logical" name="LREAL"> F  </i>
    <v name="ROPT">      0.00000000      0.00000000      0.00000000</v>
    <i type="int" name="LMAXPAW">  -100</i>
    <i type="int" name="LMAXMIX">     2</i>
    <i type="logical" name="NLSPLINE"> F  </i>
   </separator>
   <separator name="electronic startup" >
    <i type="int" name="ISTART">     0</i>
    <i type="int" name="ICHARG">     2</i>
    <i type="int" name="INIWAV">     1</i>
   </separator>
   <separator name="electronic spin" >
    <i type="int" name="ISPIN">     1</i>
    <i type="logical" name="LNONCOLLINEAR"> F  </i>
    <v name="MAGMOM">      1.00000000      1.00000000      1.00000000      1.00000000      1.00000000      1.00000000      1.00000000      1.00000000      1.00000000</v>
    <i name="NUPDOWN">     -1.00000000</i>
    <i type="logical" name="LSORBIT"> F  </i>
    <v name="SAXIS">      0.00000000      0.00000000      1.00000000</v>
    <i type="logical" name="LSPIRAL"> F  </i>
    <v name="QSPIRAL">      0.00000000      0.00000000      0.00000000</v>
    <i type="logical" name="LZEROZ"> F  </i>
   </separator>
   <separator name="electronic exchange-correlation" >
    <i type="logical" name="LASPH"> F  </i>
    <i type="logical" name="LMETAGGA"> F  </i>
   </separator>
   <separator name="electronic convergence" >
    <i type="int" name="NELM">   200</i>
    <i type="int" name="NELMDL">    -5</i>
    <i type="int" name="NELMIN">     2</i>
    <i name="ENINI">    400.00000000</i>
    <separator name="electronic convergence detail" >
     <i type="logical" name="LDIAG"> T  </i>
     <i type="logical" name="LSUBROT"> F  </i>
     <i name="WEIMIN">      0.00000000</i>
     <i name="EBREAK">      0.00000000</i>
     <i name="DEPER">      0.30000000</i>
     <i type="int" name="NRMM">     4</i>
     <i name="TIME">      0.40000000</i>
    </separator>
   </separator>
   <separator name="electronic mixer" >
    <i name="AMIX">      0.40000000</i>
    <i name="BMIX">      1.00000000</i>
    <i name="AMIN">      0.10000000</i>
    <i name="AMIX_MAG">      1.60000000</i>
    <i name="BMIX_MAG">      1.00000000</i>
    <separator name="electronic mixer details" >
     <i type="int" name="IMIX">     4</i>
     <i type="logical" name="MIXFIRST"> F  </i>
     <i type="int" name="MAXMIX">   -45</i>
     <i name="WC">    100.00000000</i>
     <i type="int" name="INIMIX">     1</i>
     <i type="int" name="MIXPRE">     1</i>
     <i type="int" name="MREMOVE">     5</i>
    </separator>
   </separator>
   <separator name="electronic dipolcorrection" >
    <i type="logical" name="LDIPOL"> F  </i>
    <i type="logical" name="LMONO"> F  </i>
    <i type="int" name="IDIPOL">     0</i>
    <i name="EPSILON">      1.00000000</i>
    <v name="DIPOL">   -100.00000000   -100.00000000   -100.00000000</v>
    <i name="EFIELD">      0.00000000</i>
   </separator>
  </separator>
  <separator name="grids" >
   <i type="int" name="NGX">    28</i>
   <i type="int" name="NGY">    28</i>
   <i type="int" name="NGZ">   112</i>
   <i type="int" name="NGXF">    56</i>
   <i type="int" name="NGYF">    56</i>
   <i type="int" name="NGZF">   224</i>
   <i type="logical" name="ADDGRID"> F  </i>
  </separator>
  <separator name="ionic" >
   <i type="int" name="NSW">     0</i>
   <i type="int" name="IBRION">    -1</i>
   <i type="int" name="MDALGO">     0</i>
   <i type="int" name="ISIF">     3</i>
   <i name="PSTRESS">      0.00000000</i>
   <i name="EDIFFG">      0.00000010</i>
   <i type="int" name="NFREE">     0</i>
   <i name="POTIM">      0.50000000</i>
   <i name="SMASS">     -3.00000000</i>
   <i name="SCALEE">      1.00000000</i>
  </separator>
  <separator name="ionic md" >
   <i name="TEBEG">      0.00010000</i>
   <i name="TEEND">      0.00010000</i>
   <i type="int" name="NBLOCK">     1</i>
   <i type="int" name="KBLOCK">     1</i>
   <i type="int" name="NPACO">   256</i>
   <i name="APACO">     16.00000000</i>
  </separator>
  <separator name="symmetry" >
   <i type="int" name="ISYM">     2</i>
   <i name="SYMPREC">      0.00001000</i>
  </separator>
  <separator name="dos" >
   <i type="int" name="LORBIT">     0</i>
   <v name="RWIGS">     -1.00000000     -1.00000000     -1.00000000</v>
   <i type="int" name="NEDOS">   301</i>
   <i name="EMIN">     10.00000000</i>
   <i name="EMAX">    -10.00000000</i>
   <i name="EFERMI">      0.00000000</i>
  </separator>
  <separator name="writing" >
   <i type="int" name="NWRITE">     2</i>
   <i type="logical" name="LWAVE"> F  </i>
   <i type="logical" name="LDOWNSAMPLE"> F  </i>
   <i type="logical" name="LCHARG"> F  </i>
   <i type="logical" name="LPARD"> F  </i>
   <i type="logical" name="LVTOT"> F  </i>
   <i type="logical" name="LVHAR"> F  </i>
   <i type="logical" name="LELF"> F  </i>
   <i type="logical" name="LOPTICS"> F  </i>
   <v name="STM">      0.00000000      0.00000000      0.00000000      0.00000000      0.00000000      0.00000000      0.00000000</v>
  </separator>
  <separator name="performance" >
   <i type="int" name="NPAR">    16</i>
   <i type="int" name="NSIM">     4</i>
   <i type="int" name="NBLK">    -1</i>
   <i type="logical" name="LPLANE"> T  </i>
   <i type="logical" name="LSCALAPACK"> T  </i>
   <i type="logical" name="LSCAAWARE"> F  </i>
   <i type="logical" name="LSCALU"> F  </i>
   <i type="logical" name="LASYNC"> F  </i>
   <i type="logical" name="LORBITALREAL"> F  </i>
  </separator>
  <separator name="miscellaneous" >
   <i type="int" name="IDIOT">     3</i>
   <i type="int" name="ISPECIAL">     0</i>
   <i type="logical" name="LMUSIC"> F  </i>
   <v name="POMASS">     72.61000000    121.75000000    127.60000000</v>
   <v name="DARWINR">      0.00000000      0.00000000      0.00000000</v>
   <v name="DARWINV">      1.00000000      1.00000000      1.00000000</v>
   <i type="logical" name="LCORR"> T  </i>
  </separator>
  <i type="logical" name="GGA_COMPAT"> T  </i>
  <i type="logical" name="LBERRY"> F  </i>
  <i type="int" name="ICORELEVEL">     0</i>
  <i type="logical" name="LDAU"> F  </i>
  <i type="int" name="I_CONSTRAINED_M">     0</i>
  <separator name="electronic exchange-correlation" >
   <i type="string" name="GGA">PE</i>
   <i type="int" name="VOSKOWN">     0</i>
   <i type="logical" name="LHFCALC"> F  </i>
   <i type="string" name="PRECFOCK"></i>
   <i type="logical" name="LSYMGRAD"> F  </i>
   <i type="logical" name="LHFONE"> F  </i>
   <i type="logical" name="LRHFCALC"> F  </i>
   <i type="logical" name="LTHOMAS"> F  </i>
   <i type="logical" name="LMODELHF"> F  </i>
   <i name="ENCUT4O">     -1.00000000</i>
   <i type="int" name="EXXOEP">     0</i>
   <i type="int" name="FOURORBIT">     0</i>
   <i name="AEXX">      0.00000000</i>
   <i name="HFALPHA">      0.00000000</i>
   <i name="MCALPHA">      0.00000000</i>
   <i name="ALDAX">      1.00000000</i>
   <i name="AGGAX">      1.00000000</i>
   <i name="ALDAC">      1.00000000</i>
   <i name="AGGAC">      1.00000000</i>
   <i type="int" name="NKREDX">     1</i>
   <i type="int" name="NKREDY">     1</i>
   <i type="int" name="NKREDZ">     1</i>
   <i type="logical" name="SHIFTRED"> F  </i>
   <i type="logical" name="ODDONLY"> F  </i>
   <i type="logical" name="EVENONLY"> F  </i>
   <i type="int" name="LMAXFOCK">     0</i>
   <i type="int" name="NMAXFOCKAE">     0</i>
   <i type="logical" name="LFOCKAEDFT"> F  </i>
   <i name="HFSCREEN">      0.00000000</i>
   <i name="HFSCREENC">      0.00000000</i>
   <i type="int" name="NBANDSGWLOW">     0</i>
  </separator>
  <separator name="vdW DFT" >
   <i type="logical" name="LUSE_VDW"> F  </i>
   <i name="Zab_VDW">     -0.84910000</i>
   <i name="PARAM1">      0.12340000</i>
   <i name="PARAM2">      1.00000000</i>
   <i name="PARAM3">      0.00000000</i>
  </separator>
  <separator name="model GW" >
   <i type="int" name="MODEL_GW">     0</i>
   <i name="MODEL_EPS0">     17.40895117</i>
   <i name="MODEL_ALPHA">      1.00000000</i>
  </separator>
  <separator name="linear response parameters" >
   <i type="logical" name="LEPSILON"> T  </i>
   <i type="logical" name="LRPA"> F  </i>
   <i type="logical" name="LNABLA"> F  </i>
   <i type="logical" name="LVEL"> F  </i>
   <i type="int" name="KINTER">     0</i>
   <i name="CSHIFT">      0.10000000</i>
   <i name="OMEGAMAX">     -1.00000000</i>
   <i name="DEG_THRESHOLD">      0.00200000</i>
   <i name="RTIME">     -0.10000000</i>
   <i name="WPLASMAI">      0.00000000</i>
   <v name="DFIELD">      0.00000000      0.00000000      0.00000000</v>
   <v name="WPLASMA">      0.00000000      0.00000000      0.00000000      0.00000000      0.00000000      0.00000000      0.00000000      0.00000000      0.00000000</v>
  </separator>
  <separator name="orbital magnetization" >
   <i type="logical" name="NUCIND"> F  </i>
   <v name="MAGPOS">      0.00000000      0.00000000      0.00000000</v>
   <i type="logical" name="LNICSALL"> T  </i>
   <i type="logical" name="ORBITALMAG"> F  </i>
   <i type="logical" name="LMAGBLOCH"> F  </i>
   <i type="logical" name="LCHIMAG"> F  </i>
   <i type="logical" name="LGAUGE"> T  </i>
   <i type="int" name="MAGATOM">     0</i>
   <v name="MAGDIPOL">      0.00000000      0.00000000      0.00000000</v>
   <v name="AVECCONST">      0.00000000      0.00000000      0.00000000</v>
  </separator>
  <separator name="response functions" >
   <i type="logical" name="LADDER"> F  </i>
   <i type="logical" name="LRPAFORCE"> F  </i>
   <i type="logical" name="LFXC"> F  </i>
   <i type="logical" name="LHARTREE"> T  </i>
   <i type="int" name="IBSE">     0</i>
   <v type="int" name="KPOINT">    -1     0     0     0</v>
   <i type="logical" name="LTCTE"> F  </i>
   <i type="logical" name="LTETE"> F  </i>
   <i type="logical" name="LTRIPLET"> F  </i>
   <i type="logical" name="LFXCEPS"> F  </i>
   <i type="logical" name="LFXHEG"> F  </i>
   <i type="int" name="NATURALO">     2</i>
   <i type="logical" name="L2ORDER"> F  </i>
   <i type="logical" name="LMP2LT"> F  </i>
   <i type="logical" name="LUSEW"> F  </i>
   <i name="ENCUTGW">     -2.00000000</i>
   <i name="ENCUTGWSOFT">     -2.00000000</i>
   <i name="ENCUTLF">     -1.00000000</i>
   <i type="int" name="LMAXMP2">    -1</i>
   <i name="SCISSOR">      0.00000000</i>
   <i type="int" name="NOMEGA">     0</i>
   <i type="int" name="NOMEGAR">     0</i>
   <i type="int" name="NBANDSGW">    -1</i>
   <i type="int" name="NBANDSO">    -1</i>
   <i type="int" name="NBANDSV">    -1</i>
   <i type="int" name="NELM">   200</i>
   <i type="int" name="NELMHF">     1</i>
   <i type="int" name="DIM">     3</i>
   <i type="int" name="ANTIRES">     0</i>
   <i name="OMEGAMAX">    -30.00000000</i>
   <i name="OMEGAMIN">    -30.00000000</i>
   <i name="OMEGATL">   -200.00000000</i>
   <i type="int" name="OMEGAGRID">   140</i>
   <i name="CSHIFT">     -0.10000000</i>
   <i type="logical" name="SELFENERGY"> F  </i>
   <i type="logical" name="LSPECTRAL"> F  </i>
   <i type="logical" name="LSPECTRALGW"> F  </i>
   <i type="logical" name="LSINGLES"> F  </i>
   <i type="logical" name="LFERMIGW"> F  </i>
   <i type="logical" name="ODDONLYGW"> F  </i>
   <i type="logical" name="EVENONLYGW"> F  </i>
   <i type="int" name="NKREDLFX">     1</i>
   <i type="int" name="NKREDLFY">     1</i>
   <i type="int" name="NKREDLFZ">     1</i>
   <i type="int" name="MAXMEM">  2800</i>
   <i type="int" name="TELESCOPE">     0</i>
   <i type="int" name="TAUPAR">     1</i>
   <i type="int" name="OMEGAPAR">    -1</i>
   <i name="LAMBDA">      1.00000000</i>
  </separator>
  <separator name="External order field" >
   <i name="OFIELD_KAPPA">      0.00000000</i>
   <v name="OFIELD_K">      0.00000000      0.00000000      0.00000000</v>
   <i name="OFIELD_Q6_NEAR">      0.00000000</i>
   <i name="OFIELD_Q6_FAR">      0.00000000</i>
   <i name="OFIELD_A">      0.00000000</i>
  </separator>
 </parameters>
 <atominfo>
  <atoms>       9 </atoms>
  <types>       3 </types>
  <array name="atoms" >
   <dimension dim="1">ion</dimension>
   <field type="string">element</field>
   <field type="int">atomtype</field>
   <set>
    <rc><c>Ge</c><c>   1</c></rc>
    <rc><c>Ge</c><c>   1</c></rc>
    <rc><c>Sb</c><c>   2</c></rc>
    <rc><c>Sb</c><c>   2</c></rc>
    <rc><c>Te</c><c>   3</c></rc>
    <rc><c>Te</c><c>   3</c></rc>
    <rc><c>Te</c><c>   3</c></rc>
    <rc><c>Te</c><c>   3</c></rc>
    <rc><c>Te</c><c>   3</c></rc>
   </set>
  </array>
  <array name="atomtypes" >
   <dimension dim="1">type</dimension>
   <field type="int">atomspertype</field>
   <field type="string">element</field>
   <field>mass</field>
   <field>valence</field>
   <field type="string">pseudopotential</field>
   <set>
    <rc><c>   2</c><c>Ge</c><c>     72.61000000</c><c>      4.00000000</c><c>  PAW_PBE Ge 05Jan2001                  </c></rc>
    <rc><c>   2</c><c>Sb</c><c>    121.75000000</c><c>      5.00000000</c><c>  PAW_PBE Sb 06Sep2000                  </c></rc>
    <rc><c>   5</c><c>Te</c><c>    127.60000000</c><c>      6.00000000</c><c>  PAW_PBE Te 08Apr2002                  </c></rc>
   </set>
  </array>
 </atominfo>
 <structure name="initialpos" >
  <crystal>
   <varray name="basis" >
    <v>       4.23389098       0.00000000       0.00000000 </v>
    <v>       2.11694549       3.66665715       0.00000000 </v>
    <v>       0.00000000      -0.00000000      16.82108059 </v>
   </varray>
   <i name="volume">    261.13426753 </i>
   <varray name="rec_basis" >
    <v>       0.23618936      -0.13636399      -0.00000000 </v>
    <v>      -0.00000000       0.27272798       0.00000000 </v>
    <v>      -0.00000000       0.00000000       0.05944921 </v>
   </varray>
  </crystal>
  <varray name="positions" >
   <v>       0.33333333       0.33333333       0.10107162 </v>
   <v>       0.66666667       0.66666667       0.89892838 </v>
   <v>       0.00000000       0.00000000       0.31882486 </v>
   <v>       0.00000000       0.00000000       0.68117514 </v>
   <v>       0.00000000       0.00000000       0.00000000 </v>
   <v>       0.66666667       0.66666667       0.19991905 </v>
   <v>       0.33333333       0.33333333       0.42174369 </v>
   <v>       0.66666667       0.66666667       0.57825631 </v>
   <v>       0.33333333       0.33333333       0.80008095 </v>
  </varray>
 </structure>
 <calculation>
  <scstep>
   <time name="dav">    0.21    0.21</time>
   <time name="total">    0.25    0.26</time>
   <energy>
    <i name="alphaZ">     17.16266297 </i>
    <i name="ewald">  -1714.16450888 </i>
    <i name="hartreedc">    -85.41673561 </i>
    <i name="XCdc">   -246.67380757 </i>
    <i name="pawpsdc">   1542.37021443 </i>
    <i name="pawaedc">  -1213.06010590 </i>
    <i name="eentropy">     -0.00276677 </i>
    <i name="bandstr">    258.19471885 </i>
    <i name="atom">   1626.24767551 </i>
    <i name="e_fr_energy">    184.65734703 </i>
    <i name="e_wo_entrp">    184.66011380 </i>
    <i name="e_0_energy">    184.65873041 </i>
   </energy>
  </scstep>
  <scstep>
   <time name="dav">    0.25    0.25</time>
   <time name="total">    0.25    0.26</time>
   <energy>
    <i name="e_fr_energy">    -22.24834623 </i>
    <i name="e_wo_entrp">    -22.24635292 </i>
    <i name="e_0_energy">    -22.24734958 </i>
   </energy>
  </scstep>
  <scstep>
   <time name="dav">    0.26    0.26</time>
   <time name="total">    0.26    0.26</time>
   <energy>
    <i name="e_fr_energy">    -33.86911073 </i>
    <i name="e_wo_entrp">    -33.86901090 </i>
    <i name="e_0_energy">    -33.86906082 </i>
   </energy>
  </scstep>
  <scstep>
   <time name="dav">    0.25    0.26</time>
   <time name="total">    0.26    0.26</time>
   <energy>
    <i name="e_fr_energy">    -34.03658022 </i>
    <i name="e_wo_entrp">    -34.03649390 </i>
    <i name="e_0_energy">    -34.03653706 </i>
   </energy>
  </scstep>
  <scstep>
   <time name="dav">    0.25    0.25</time>
   <time name="total">    0.29    0.29</time>
   <energy>
    <i name="e_fr_energy">    -34.03857293 </i>
    <i name="e_wo_entrp">    -34.03848668 </i>
    <i name="e_0_energy">    -34.03852980 </i>
   </energy>
  </scstep>
  <scstep>
   <time name="dav">    0.27    0.27</time>
   <time name="total">    0.33    0.33</time>
   <energy>
    <i name="e_fr_energy">    -33.87001518 </i>
    <i name="e_wo_entrp">    -33.87000363 </i>
    <i name="e_0_energy">    -33.87000940 </i>
   </energy>
  </scstep>
  <scstep>
   <time name="dav">    0.25    0.25</time>
   <time name="total">    0.30    0.31</time>
   <energy>
    <i name="e_fr_energy">    -34.07351023 </i>
    <i name="e_wo_entrp">    -34.07334701 </i>
    <i name="e_0_energy">    -34.07342862 </i>
   </energy>
  </scstep>
  <scstep>
   <time name="dav">    0.24    0.24</time>
   <time name="total">    0.30    0.30</time>
   <energy>
    <i name="e_fr_energy">    -33.85995197 </i>
    <i name="e_wo_entrp">    -33.85986380 </i>
    <i name="e_0_energy">    -33.85990789 </i>
   </energy>
  </scstep>
  <scstep>
   <time name="dav">    0.22    0.22</time>
   <time name="total">    0.29    0.29</time>
   <energy>
    <i name="e_fr_energy">    -33.86030547 </i>
    <i name="e_wo_entrp">    -33.86021439 </i>
    <i name="e_0_energy">    -33.86025993 </i>
   </energy>
  </scstep>
  <scstep>
   <time name="dav">    0.28    0.28</time>
   <time name="total">    0.34    0.34</time>
   <energy>
    <i name="e_fr_energy">    -33.86062798 </i>
    <i name="e_wo_entrp">    -33.86053815 </i>
    <i name="e_0_energy">    -33.86058307 </i>
   </energy>
  </scstep>
  <scstep>
   <time name="dav">    0.23    0.23</time>
   <time name="total">    0.29    0.29</time>
   <energy>
    <i name="e_fr_energy">    -33.86049857 </i>
    <i name="e_wo_entrp">    -33.86041304 </i>
    <i name="e_0_energy">    -33.86045581 </i>
   </energy>
  </scstep>
  <scstep>
   <time name="dav">    0.25    0.25</time>
   <time name="total">    0.30    0.30</time>
   <energy>
    <i name="e_fr_energy">    -33.86056199 </i>
    <i name="e_wo_entrp">    -33.86048110 </i>
    <i name="e_0_energy">    -33.86052154 </i>
   </energy>
  </scstep>
  <scstep>
   <time name="dav">    0.24    0.24</time>
   <time name="total">    0.29    0.30</time>
   <energy>
    <i name="e_fr_energy">    -33.86055096 </i>
    <i name="e_wo_entrp">    -33.86047011 </i>
    <i name="e_0_energy">    -33.86051054 </i>
   </energy>
  </scstep>
  <scstep>
   <time name="dav">    0.24    0.24</time>
   <time name="total">    0.30    0.30</time>
   <energy>
    <i name="e_fr_energy">    -33.86053890 </i>
    <i name="e_wo_entrp">    -33.86045768 </i>
    <i name="e_0_energy">    -33.86049829 </i>
   </energy>
  </scstep>
  <scstep>
   <time name="dav">    0.23    0.23</time>
   <time name="total">    0.29    0.29</time>
   <energy>
    <i name="e_fr_energy">    -33.86049996 </i>
    <i name="e_wo_entrp">    -33.86041835 </i>
    <i name="e_0_energy">    -33.86045916 </i>
   </energy>
  </scstep>
  <scstep>
   <time name="dav">    0.24    0.24</time>
   <time name="total">    0.30    0.30</time>
   <energy>
    <i name="e_fr_energy">    -33.86050036 </i>
    <i name="e_wo_entrp">    -33.86041902 </i>
    <i name="e_0_energy">    -33.86045969 </i>
   </energy>
  </scstep>
  <scstep>
   <time name="dav">    0.28    0.28</time>
   <time name="total">    0.34    0.34</time>
   <energy>
    <i name="e_fr_energy">    -33.86050054 </i>
    <i name="e_wo_entrp">    -33.86041918 </i>
    <i name="e_0_energy">    -33.86045986 </i>
   </energy>
  </scstep>
  <scstep>
   <time name="dav">    0.23    0.23</time>
   <time name="total">    0.29    0.29</time>
   <energy>
    <i name="e_fr_energy">    -33.86049777 </i>
    <i name="e_wo_entrp">    -33.86041629 </i>
    <i name="e_0_energy">    -33.86045703 </i>
   </energy>
  </scstep>
  <scstep>
   <time name="dav">    0.26    0.26</time>
   <time name="total">    0.32    0.32</time>
   <energy>
    <i name="e_fr_energy">    -33.86049818 </i>
    <i name="e_wo_entrp">    -33.86041665 </i>
    <i name="e_0_energy">    -33.86045742 </i>
   </energy>
  </scstep>
  <scstep>
   <time name="dav">    0.21    0.22</time>
   <time name="total">    0.27    0.27</time>
   <energy>
    <i name="e_fr_energy">    -33.86049823 </i>
    <i name="e_wo_entrp">    -33.86041671 </i>
    <i name="e_0_energy">    -33.86045747 </i>
   </energy>
  </scstep>
  <scstep>
   <time name="dav">    0.20    0.20</time>
   <time name="total">    0.23    0.24</time>
   <energy>
    <i name="alphaZ">     17.16266297 </i>
    <i name="ewald">  -1714.16450888 </i>
    <i name="hartreedc">    -88.71163670 </i>
    <i name="XCdc">   -245.89901095 </i>
    <i name="pawpsdc">   3202.17869710 </i>
    <i name="pawaedc">  -2873.38815751 </i>
    <i name="eentropy">     -0.00008152 </i>
    <i name="bandstr">     42.71386176 </i>
    <i name="atom">   1626.24767551 </i>
    <i name="e_fr_energy">    -33.86049823 </i>
    <i name="e_wo_entrp">    -33.86041671 </i>
    <i name="e_0_energy">    -33.86045747 </i>
   </energy>
  </scstep>
  <structure>
   <crystal>
    <varray name="basis" >
     <v>       4.23389098       0.00000000       0.00000000 </v>
     <v>       2.11694549       3.66665715       0.00000000 </v>
     <v>       0.00000000      -0.00000000      16.82108059 </v>
    </varray>
    <i name="volume">    261.13426753 </i>
    <varray name="rec_basis" >
     <v>       0.23618936      -0.13636399      -0.00000000 </v>
     <v>      -0.00000000       0.27272798       0.00000000 </v>
     <v>      -0.00000000       0.00000000       0.05944921 </v>
    </varray>
   </crystal>
   <varray name="positions" >
    <v>       0.33333333       0.33333333       0.10107162 </v>
    <v>       0.66666667       0.66666667       0.89892838 </v>
    <v>       0.00000000       0.00000000       0.31882486 </v>
    <v>       0.00000000       0.00000000       0.68117514 </v>
    <v>       0.00000000       0.00000000       0.00000000 </v>
    <v>       0.66666667       0.66666667       0.19991905 </v>
    <v>       0.33333333       0.33333333       0.42174369 </v>
    <v>       0.66666667       0.66666667       0.57825631 </v>
    <v>       0.33333333       0.33333333       0.80008095 </v>
   </varray>
  </structure>
  <varray name="forces" >
   <v>      -0.00000000       0.00000000      -0.00001312 </v>
   <v>       0.00000000      -0.00000000       0.00001312 </v>
   <v>       0.00000000      -0.00000000       0.00014282 </v>
   <v>      -0.00000000       0.00000000      -0.00014282 </v>
   <v>       0.00000000       0.00000000       0.00000000 </v>
   <v>      -0.00000000       0.00000000      -0.00000592 </v>
   <v>       0.00000000      -0.00000000       0.00041173 </v>
   <v>      -0.00000000       0.00000000      -0.00041173 </v>
   <v>       0.00000000      -0.00000000       0.00000592 </v>
  </varray>
  <varray name="stress" >
   <v>      -0.00120275      -0.00000000       0.00000000 </v>
   <v>      -0.00000000      -0.00120275       0.00000000 </v>
   <v>      -0.00000000       0.00000000      -0.00762257 </v>
  </varray>
  <energy>
   <i name="e_fr_energy">    -37.75631969 </i>
   <i name="e_wo_entrp">    -37.75627893 </i>
   <i name="e_0_energy">     -0.00008152 </i>
  </energy>
  <scstep>
   <time name="total">    0.40    0.40</time>
   <energy>
    <i name="e_fr_energy">   -214.04911548 </i>
    <i name="e_wo_entrp">   -214.04911548 </i>
    <i name="e_0_energy">   -214.04911548 </i>
   </energy>
  </scstep>
  <scstep>
   <time name="total">    0.27    0.28</time>
   <energy>
    <i name="e_fr_energy">   -191.91240819 </i>
    <i name="e_wo_entrp">   -191.91240819 </i>
    <i name="e_0_energy">   -191.91240819 </i>
   </energy>
  </scstep>
  <scstep>
   <time name="total">    0.28    0.29</time>
   <energy>
    <i name="e_fr_energy">   -192.47324972 </i>
    <i name="e_wo_entrp">   -192.47324972 </i>
    <i name="e_0_energy">   -192.47324972 </i>
   </energy>
  </scstep>
  <scstep>
   <time name="total">    0.22    0.22</time>
   <energy>
    <i name="e_fr_energy">   -192.49024062 </i>
    <i name="e_wo_entrp">   -192.49024062 </i>
    <i name="e_0_energy">   -192.49024062 </i>
   </energy>
  </scstep>
  <scstep>
   <time name="total">    0.22    0.22</time>
   <energy>
    <i name="e_fr_energy">   -192.49061448 </i>
    <i name="e_wo_entrp">   -192.49061448 </i>
    <i name="e_0_energy">   -192.49061448 </i>
   </energy>
  </scstep>
  <scstep>
   <time name="total">    0.22    0.22</time>
   <energy>
    <i name="e_fr_energy">   -192.49060407 </i>
    <i name="e_wo_entrp">   -192.49060407 </i>
    <i name="e_0_energy">   -192.49060407 </i>
   </energy>
  </scstep>
  <scstep>
   <time name="total">    0.22    0.22</time>
   <energy>
    <i name="e_fr_energy">   -192.49060285 </i>
    <i name="e_wo_entrp">   -192.49060285 </i>
    <i name="e_0_energy">   -192.49060285 </i>
   </energy>
  </scstep>
  <scstep>
   <time name="total">    0.22    0.22</time>
   <energy>
    <i name="e_fr_energy">   -192.49060235 </i>
    <i name="e_wo_entrp">   -192.49060235 </i>
    <i name="e_0_energy">   -192.49060235 </i>
   </energy>
  </scstep>
  <scstep>
   <time name="total">    0.21    0.22</time>
   <energy>
    <i name="e_fr_energy">   -192.49060242 </i>
    <i name="e_wo_entrp">   -192.49060242 </i>
    <i name="e_0_energy">   -192.49060242 </i>
   </energy>
  </scstep>
  <scstep>
   <time name="total">    0.19    0.19</time>
   <energy>
    <i name="e_fr_energy">   -192.49060250 </i>
    <i name="e_wo_entrp">   -192.49060250 </i>
    <i name="e_0_energy">   -192.49060250 </i>
   </energy>
  </scstep>
  <scstep>
   <time name="total">    0.18    0.18</time>
   <energy>
    <i name="e_fr_energy">   -192.49060253 </i>
    <i name="e_wo_entrp">   -192.49060253 </i>
    <i name="e_0_energy">   -192.49060253 </i>
   </energy>
  </scstep>
  <scstep>
   <time name="total">    0.18    0.18</time>
   <energy>
    <i name="e_fr_energy">   -192.49060255 </i>
    <i name="e_wo_entrp">   -192.49060255 </i>
    <i name="e_0_energy">   -192.49060255 </i>
   </energy>
  </scstep>
  <scstep>
   <time name="total">    0.18    0.18</time>
   <energy>
    <i name="e_fr_energy">   -192.49060250 </i>
    <i name="e_wo_entrp">   -192.49060250 </i>
    <i name="e_0_energy">   -192.49060250 </i>
   </energy>
  </scstep>
  <scstep>
   <time name="total">    0.36    0.36</time>
   <energy>
    <i name="e_fr_energy">   -296.20082745 </i>
    <i name="e_wo_entrp">   -296.20082745 </i>
    <i name="e_0_energy">   -296.20082745 </i>
   </energy>
  </scstep>
  <scstep>
   <time name="total">    0.27    0.28</time>
   <energy>
    <i name="e_fr_energy">   -257.82412471 </i>
    <i name="e_wo_entrp">   -257.82412471 </i>
    <i name="e_0_energy">   -257.82412471 </i>
   </energy>
  </scstep>
  <scstep>
   <time name="total">    0.28    0.28</time>
   <energy>
    <i name="e_fr_energy">   -258.70652943 </i>
    <i name="e_wo_entrp">   -258.70652943 </i>
    <i name="e_0_energy">   -258.70652943 </i>
   </energy>
  </scstep>
  <scstep>
   <time name="total">    0.22    0.22</time>
   <energy>
    <i name="e_fr_energy">   -258.72522000 </i>
    <i name="e_wo_entrp">   -258.72522000 </i>
    <i name="e_0_energy">   -258.72522000 </i>
   </energy>
  </scstep>
  <scstep>
   <time name="total">    0.22    0.22</time>
   <energy>
    <i name="e_fr_energy">   -258.72470542 </i>
    <i name="e_wo_entrp">   -258.72470542 </i>
    <i name="e_0_energy">   -258.72470542 </i>
   </energy>
  </scstep>
  <scstep>
   <time name="total">    0.22    0.22</time>
   <energy>
    <i name="e_fr_energy">   -258.72449722 </i>
    <i name="e_wo_entrp">   -258.72449722 </i>
    <i name="e_0_energy">   -258.72449722 </i>
   </energy>
  </scstep>
  <scstep>
   <time name="total">    0.23    0.23</time>
   <energy>
    <i name="e_fr_energy">   -258.72447643 </i>
    <i name="e_wo_entrp">   -258.72447643 </i>
    <i name="e_0_energy">   -258.72447643 </i>
   </energy>
  </scstep>
  <scstep>
   <time name="total">    0.22    0.22</time>
   <energy>
    <i name="e_fr_energy">   -258.72446849 </i>
    <i name="e_wo_entrp">   -258.72446849 </i>
    <i name="e_0_energy">   -258.72446849 </i>
   </energy>
  </scstep>
  <scstep>
   <time name="total">    0.22    0.22</time>
   <energy>
    <i name="e_fr_energy">   -258.72446851 </i>
    <i name="e_wo_entrp">   -258.72446851 </i>
    <i name="e_0_energy">   -258.72446851 </i>
   </energy>
  </scstep>
  <scstep>
   <time name="total">    0.18    0.19</time>
   <energy>
    <i name="e_fr_energy">   -258.72446830 </i>
    <i name="e_wo_entrp">   -258.72446830 </i>
    <i name="e_0_energy">   -258.72446830 </i>
   </energy>
  </scstep>
  <scstep>
   <time name="total">    0.18    0.18</time>
   <energy>
    <i name="e_fr_energy">   -258.72446835 </i>
    <i name="e_wo_entrp">   -258.72446835 </i>
    <i name="e_0_energy">   -258.72446835 </i>
   </energy>
  </scstep>
  <scstep>
   <time name="total">    0.17    0.18</time>
   <energy>
    <i name="e_fr_energy">   -258.72446834 </i>
    <i name="e_wo_entrp">   -258.72446834 </i>
    <i name="e_0_energy">   -258.72446834 </i>
   </energy>
  </scstep>
  <scstep>
   <time name="total">    0.17    0.18</time>
   <energy>
    <i name="e_fr_energy">   -258.72446835 </i>
    <i name="e_wo_entrp">   -258.72446835 </i>
    <i name="e_0_energy">   -258.72446835 </i>
   </energy>
  </scstep>
  <scstep>
   <time name="total">    0.35    0.36</time>
   <energy>
    <i name="e_fr_energy">   -276.11122082 </i>
    <i name="e_wo_entrp">   -276.11122082 </i>
    <i name="e_0_energy">   -276.11122082 </i>
   </energy>
  </scstep>
  <scstep>
   <time name="total">    0.27    0.27</time>
   <energy>
    <i name="e_fr_energy">   -222.27927216 </i>
    <i name="e_wo_entrp">   -222.27927216 </i>
    <i name="e_0_energy">   -222.27927216 </i>
   </energy>
  </scstep>
  <scstep>
   <time name="total">    0.27    0.27</time>
   <energy>
    <i name="e_fr_energy">   -223.00483031 </i>
    <i name="e_wo_entrp">   -223.00483031 </i>
    <i name="e_0_energy">   -223.00483031 </i>
   </energy>
  </scstep>
  <scstep>
   <time name="total">    0.22    0.22</time>
   <energy>
    <i name="e_fr_energy">   -223.02565959 </i>
    <i name="e_wo_entrp">   -223.02565959 </i>
    <i name="e_0_energy">   -223.02565959 </i>
   </energy>
  </scstep>
  <scstep>
   <time name="total">    0.22    0.22</time>
   <energy>
    <i name="e_fr_energy">   -223.02590466 </i>
    <i name="e_wo_entrp">   -223.02590466 </i>
    <i name="e_0_energy">   -223.02590466 </i>
   </energy>
  </scstep>
  <scstep>
   <time name="total">    0.22    0.22</time>
   <energy>
    <i name="e_fr_energy">   -223.02590384 </i>
    <i name="e_wo_entrp">   -223.02590384 </i>
    <i name="e_0_energy">   -223.02590384 </i>
   </energy>
  </scstep>
  <scstep>
   <time name="total">    0.22    0.22</time>
   <energy>
    <i name="e_fr_energy">   -223.02590128 </i>
    <i name="e_wo_entrp">   -223.02590128 </i>
    <i name="e_0_energy">   -223.02590128 </i>
   </energy>
  </scstep>
  <scstep>
   <time name="total">    0.21    0.21</time>
   <energy>
    <i name="e_fr_energy">   -223.02590028 </i>
    <i name="e_wo_entrp">   -223.02590028 </i>
    <i name="e_0_energy">   -223.02590028 </i>
   </energy>
  </scstep>
  <scstep>
   <time name="total">    0.20    0.21</time>
   <energy>
    <i name="e_fr_energy">   -223.02590017 </i>
    <i name="e_wo_entrp">   -223.02590017 </i>
    <i name="e_0_energy">   -223.02590017 </i>
   </energy>
  </scstep>
  <scstep>
   <time name="total">    0.18    0.18</time>
   <energy>
    <i name="e_fr_energy">   -223.02590019 </i>
    <i name="e_wo_entrp">   -223.02590019 </i>
    <i name="e_0_energy">   -223.02590019 </i>
   </energy>
  </scstep>
  <scstep>
   <time name="total">    0.17    0.17</time>
   <energy>
    <i name="e_fr_energy">   -223.02590017 </i>
    <i name="e_wo_entrp">   -223.02590017 </i>
    <i name="e_0_energy">   -223.02590017 </i>
   </energy>
  </scstep>
  <scstep>
   <time name="total">    0.17    0.17</time>
   <energy>
    <i name="e_fr_energy">   -223.02590020 </i>
    <i name="e_wo_entrp">   -223.02590020 </i>
    <i name="e_0_energy">   -223.02590020 </i>
   </energy>
  </scstep>
  <scstep>
   <time name="total">    0.17    0.17</time>
   <energy>
    <i name="e_fr_energy">   -223.02590017 </i>
    <i name="e_wo_entrp">   -223.02590017 </i>
    <i name="e_0_energy">   -223.02590017 </i>
   </energy>
  </scstep>
  <scstep>
   <time name="total">    0.39    0.39</time>
   <energy>
    <i name="e_fr_energy">   -299.16462138 </i>
    <i name="e_wo_entrp">   -299.16462138 </i>
    <i name="e_0_energy">   -299.16462138 </i>
   </energy>
  </scstep>
  <scstep>
   <time name="total">    0.35    0.36</time>
   <energy>
    <i name="e_fr_energy">   -289.39649899 </i>
    <i name="e_wo_entrp">   -289.39649899 </i>
    <i name="e_0_energy">   -289.39649899 </i>
   </energy>
  </scstep>
  <scstep>
   <time name="total">    0.37    0.37</time>
   <energy>
    <i name="e_fr_energy">   -289.42341805 </i>
    <i name="e_wo_entrp">   -289.42341805 </i>
    <i name="e_0_energy">   -289.42341805 </i>
   </energy>
  </scstep>
  <scstep>
   <time name="total">    0.36    0.37</time>
   <energy>
    <i name="e_fr_energy">   -289.42424289 </i>
    <i name="e_wo_entrp">   -289.42424289 </i>
    <i name="e_0_energy">   -289.42424289 </i>
   </energy>
  </scstep>
  <scstep>
   <time name="total">    0.36    0.37</time>
   <energy>
    <i name="e_fr_energy">   -289.42428901 </i>
    <i name="e_wo_entrp">   -289.42428901 </i>
    <i name="e_0_energy">   -289.42428901 </i>
   </energy>
  </scstep>
  <scstep>
   <time name="total">    0.36    0.36</time>
   <energy>
    <i name="e_fr_energy">   -289.42429400 </i>
    <i name="e_wo_entrp">   -289.42429400 </i>
    <i name="e_0_energy">   -289.42429400 </i>
   </energy>
  </scstep>
  <scstep>
   <time name="total">    0.34    0.34</time>
   <energy>
    <i name="e_fr_energy">   -289.42429513 </i>
    <i name="e_wo_entrp">   -289.42429513 </i>
    <i name="e_0_energy">   -289.42429513 </i>
   </energy>
  </scstep>
  <scstep>
   <time name="total">    0.31    0.32</time>
   <energy>
    <i name="e_fr_energy">   -289.42429513 </i>
    <i name="e_wo_entrp">   -289.42429513 </i>
    <i name="e_0_energy">   -289.42429513 </i>
   </energy>
  </scstep>
  <scstep>
   <time name="total">    0.32    0.32</time>
   <energy>
    <i name="e_fr_energy">   -289.42429509 </i>
    <i name="e_wo_entrp">   -289.42429509 </i>
    <i name="e_0_energy">   -289.42429509 </i>
   </energy>
  </scstep>
  <scstep>
   <time name="total">    0.31    0.31</time>
   <energy>
    <i name="e_fr_energy">   -289.42429510 </i>
    <i name="e_wo_entrp">   -289.42429510 </i>
    <i name="e_0_energy">   -289.42429510 </i>
   </energy>
  </scstep>
  <scstep>
   <time name="total">    0.30    0.31</time>
   <energy>
    <i name="e_fr_energy">   -289.42429510 </i>
    <i name="e_wo_entrp">   -289.42429510 </i>
    <i name="e_0_energy">   -289.42429510 </i>
   </energy>
  </scstep>
  <scstep>
   <time name="total">    0.30    0.30</time>
   <energy>
    <i name="e_fr_energy">   -289.42429510 </i>
    <i name="e_wo_entrp">   -289.42429510 </i>
    <i name="e_0_energy">   -289.42429510 </i>
   </energy>
  </scstep>
  <scstep>
   <time name="total">    0.29    0.30</time>
   <energy>
    <i name="e_fr_energy">   -289.42429510 </i>
    <i name="e_wo_entrp">   -289.42429510 </i>
    <i name="e_0_energy">   -289.42429510 </i>
   </energy>
  </scstep>
  <scstep>
   <time name="total">    0.38    0.38</time>
   <energy>
    <i name="e_fr_energy">   -332.86044180 </i>
    <i name="e_wo_entrp">   -332.86044180 </i>
    <i name="e_0_energy">   -332.86044180 </i>
   </energy>
  </scstep>
  <scstep>
   <time name="total">    0.36    0.36</time>
   <energy>
    <i name="e_fr_energy">   -323.29399848 </i>
    <i name="e_wo_entrp">   -323.29399848 </i>
    <i name="e_0_energy">   -323.29399848 </i>
   </energy>
  </scstep>
  <scstep>
   <time name="total">    0.36    0.36</time>
   <energy>
    <i name="e_fr_energy">   -323.32020436 </i>
    <i name="e_wo_entrp">   -323.32020436 </i>
    <i name="e_0_energy">   -323.32020436 </i>
   </energy>
  </scstep>
  <scstep>
   <time name="total">    0.36    0.37</time>
   <energy>
    <i name="e_fr_energy">   -323.32089823 </i>
    <i name="e_wo_entrp">   -323.32089823 </i>
    <i name="e_0_energy">   -323.32089823 </i>
   </energy>
  </scstep>
  <scstep>
   <time name="total">    0.37    0.37</time>
   <energy>
    <i name="e_fr_energy">   -323.32093772 </i>
    <i name="e_wo_entrp">   -323.32093772 </i>
    <i name="e_0_energy">   -323.32093772 </i>
   </energy>
  </scstep>
  <scstep>
   <time name="total">    0.37    0.37</time>
   <energy>
    <i name="e_fr_energy">   -323.32094207 </i>
    <i name="e_wo_entrp">   -323.32094207 </i>
    <i name="e_0_energy">   -323.32094207 </i>
   </energy>
  </scstep>
  <scstep>
   <time name="total">    0.34    0.35</time>
   <energy>
    <i name="e_fr_energy">   -323.32094319 </i>
    <i name="e_wo_entrp">   -323.32094319 </i>
    <i name="e_0_energy">   -323.32094319 </i>
   </energy>
  </scstep>
  <scstep>
   <time name="total">    0.32    0.32</time>
   <energy>
    <i name="e_fr_energy">   -323.32094317 </i>
    <i name="e_wo_entrp">   -323.32094317 </i>
    <i name="e_0_energy">   -323.32094317 </i>
   </energy>
  </scstep>
  <scstep>
   <time name="total">    0.32    0.32</time>
   <energy>
    <i name="e_fr_energy">   -323.32094311 </i>
    <i name="e_wo_entrp">   -323.32094311 </i>
    <i name="e_0_energy">   -323.32094311 </i>
   </energy>
  </scstep>
  <scstep>
   <time name="total">    0.32    0.32</time>
   <energy>
    <i name="e_fr_energy">   -323.32094313 </i>
    <i name="e_wo_entrp">   -323.32094313 </i>
    <i name="e_0_energy">   -323.32094313 </i>
   </energy>
  </scstep>
  <scstep>
   <time name="total">    0.30    0.30</time>
   <energy>
    <i name="e_fr_energy">   -323.32094313 </i>
    <i name="e_wo_entrp">   -323.32094313 </i>
    <i name="e_0_energy">   -323.32094313 </i>
   </energy>
  </scstep>
  <scstep>
   <time name="total">    0.30    0.30</time>
   <energy>
    <i name="e_fr_energy">   -323.32094313 </i>
    <i name="e_wo_entrp">   -323.32094313 </i>
    <i name="e_0_energy">   -323.32094313 </i>
   </energy>
  </scstep>
  <scstep>
   <time name="total">    0.30    0.30</time>
   <energy>
    <i name="e_fr_energy">   -323.32094313 </i>
    <i name="e_wo_entrp">   -323.32094313 </i>
    <i name="e_0_energy">   -323.32094313 </i>
   </energy>
  </scstep>
  <scstep>
   <time name="total">    0.37    0.38</time>
   <energy>
    <i name="e_fr_energy">    -45.61658532 </i>
    <i name="e_wo_entrp">    -45.61658532 </i>
    <i name="e_0_energy">    -45.61658532 </i>
   </energy>
  </scstep>
  <scstep>
   <time name="total">    0.36    0.36</time>
   <energy>
    <i name="e_fr_energy">    -50.68862315 </i>
    <i name="e_wo_entrp">    -50.68862315 </i>
    <i name="e_0_energy">    -50.68862315 </i>
   </energy>
  </scstep>
  <scstep>
   <time name="total">    0.35    0.36</time>
   <energy>
    <i name="e_fr_energy">    -50.71580495 </i>
    <i name="e_wo_entrp">    -50.71580495 </i>
    <i name="e_0_energy">    -50.71580495 </i>
   </energy>
  </scstep>
  <scstep>
   <time name="total">    0.36    0.36</time>
   <energy>
    <i name="e_fr_energy">    -50.71666348 </i>
    <i name="e_wo_entrp">    -50.71666348 </i>
    <i name="e_0_energy">    -50.71666348 </i>
   </energy>
  </scstep>
  <scstep>
   <time name="total">    0.36    0.36</time>
   <energy>
    <i name="e_fr_energy">    -50.71669999 </i>
    <i name="e_wo_entrp">    -50.71669999 </i>
    <i name="e_0_energy">    -50.71669999 </i>
   </energy>
  </scstep>
  <scstep>
   <time name="total">    0.35    0.36</time>
   <energy>
    <i name="e_fr_energy">    -50.71670320 </i>
    <i name="e_wo_entrp">    -50.71670320 </i>
    <i name="e_0_energy">    -50.71670320 </i>
   </energy>
  </scstep>
  <scstep>
   <time name="total">    0.33    0.34</time>
   <energy>
    <i name="e_fr_energy">    -50.71670337 </i>
    <i name="e_wo_entrp">    -50.71670337 </i>
    <i name="e_0_energy">    -50.71670337 </i>
   </energy>
  </scstep>
  <scstep>
   <time name="total">    0.31    0.31</time>
   <energy>
    <i name="e_fr_energy">    -50.71670341 </i>
    <i name="e_wo_entrp">    -50.71670341 </i>
    <i name="e_0_energy">    -50.71670341 </i>
   </energy>
  </scstep>
  <scstep>
   <time name="total">    0.31    0.31</time>
   <energy>
    <i name="e_fr_energy">    -50.71670341 </i>
    <i name="e_wo_entrp">    -50.71670341 </i>
    <i name="e_0_energy">    -50.71670341 </i>
   </energy>
  </scstep>
  <varray name="epsilon_rpa" >
   <v>     425.60201498      -0.00000000       0.00000000 </v>
   <v>      -0.00000000     425.60201498      -0.00000000 </v>
   <v>       0.00000000      -0.00000000      71.28830796 </v>
  </varray>
  <kpoints>
   <generation param="Gamma">
    <v type="int" name="divisions">      12       12        3 </v>
    <v name="usershift">      0.00000000       0.00000000       0.00000000 </v>
    <v name="genvec1">      0.08333333      -0.00000000       0.00000000 </v>
    <v name="genvec2">      0.00000000       0.08333333       0.00000000 </v>
    <v name="genvec3">      0.00000000       0.00000000       0.33333333 </v>
    <v name="shift">      0.00000000       0.00000000       0.00000000 </v>
   </generation>
   <varray name="kpointlist" >
    <v>       0.00000000       0.00000000       0.00000000 </v>
    <v>       0.08333333       0.00000000       0.00000000 </v>
    <v>       0.16666667       0.00000000       0.00000000 </v>
    <v>       0.25000000       0.00000000      -0.00000000 </v>
    <v>       0.33333333       0.00000000      -0.00000000 </v>
    <v>       0.41666667       0.00000000      -0.00000000 </v>
    <v>       0.50000000       0.00000000      -0.00000000 </v>
    <v>      -0.00000000       0.08333333       0.00000000 </v>
    <v>       0.16666667       0.08333333       0.00000000 </v>
    <v>       0.25000000       0.08333333      -0.00000000 </v>
    <v>       0.33333333       0.08333333       0.00000000 </v>
    <v>       0.41666667       0.08333333       0.00000000 </v>
    <v>       0.50000000       0.08333333      -0.00000000 </v>
    <v>      -0.41666667       0.08333333       0.00000000 </v>
    <v>      -0.33333333       0.08333333       0.00000000 </v>
    <v>      -0.25000000       0.08333333       0.00000000 </v>
    <v>      -0.16666667       0.08333333      -0.00000000 </v>
    <v>      -0.08333333       0.08333333       0.00000000 </v>
    <v>      -0.00000000       0.16666667       0.00000000 </v>
    <v>       0.33333333       0.16666667      -0.00000000 </v>
    <v>       0.41666667       0.16666667      -0.00000000 </v>
    <v>       0.50000000       0.16666667      -0.00000000 </v>
    <v>      -0.41666667       0.16666667       0.00000000 </v>
    <v>      -0.33333333       0.16666667       0.00000000 </v>
    <v>      -0.25000000       0.16666667       0.00000000 </v>
    <v>      -0.16666667       0.16666667      -0.00000000 </v>
    <v>      -0.08333333       0.16666667       0.00000000 </v>
    <v>      -0.00000000       0.25000000       0.00000000 </v>
    <v>       0.50000000       0.25000000      -0.00000000 </v>
    <v>      -0.41666667       0.25000000       0.00000000 </v>
    <v>      -0.33333333       0.25000000       0.00000000 </v>
    <v>      -0.25000000       0.25000000       0.00000000 </v>
    <v>      -0.16666667       0.25000000       0.00000000 </v>
    <v>      -0.08333333       0.25000000       0.00000000 </v>
    <v>      -0.00000000       0.33333333       0.00000000 </v>
    <v>      -0.33333333       0.33333333       0.00000000 </v>
    <v>      -0.25000000       0.33333333       0.00000000 </v>
    <v>      -0.16666667       0.33333333       0.00000000 </v>
    <v>      -0.08333333       0.33333333       0.00000000 </v>
    <v>      -0.00000000       0.41666667       0.00000000 </v>
    <v>      -0.16666667       0.41666667       0.00000000 </v>
    <v>      -0.08333333       0.41666667       0.00000000 </v>
    <v>      -0.00000000       0.50000000       0.00000000 </v>
    <v>       0.00000000      -0.00000000       0.33333333 </v>
    <v>       0.08333333       0.00000000       0.33333333 </v>
    <v>       0.16666667       0.00000000       0.33333333 </v>
    <v>       0.25000000       0.00000000       0.33333333 </v>
    <v>       0.33333333       0.00000000       0.33333333 </v>
    <v>       0.41666667       0.00000000       0.33333333 </v>
    <v>       0.50000000       0.00000000       0.33333333 </v>
    <v>      -0.41666667       0.00000000       0.33333333 </v>
    <v>      -0.33333333      -0.00000000       0.33333333 </v>
    <v>      -0.25000000      -0.00000000       0.33333333 </v>
    <v>      -0.16666667       0.00000000       0.33333333 </v>
    <v>      -0.08333333      -0.00000000       0.33333333 </v>
    <v>       0.00000000       0.08333333       0.33333333 </v>
    <v>       0.16666667       0.08333333       0.33333333 </v>
    <v>       0.25000000       0.08333333       0.33333333 </v>
    <v>       0.33333333       0.08333333       0.33333333 </v>
    <v>       0.41666667       0.08333333       0.33333333 </v>
    <v>       0.50000000       0.08333333       0.33333333 </v>
    <v>      -0.41666667       0.08333333       0.33333333 </v>
    <v>      -0.33333333       0.08333333       0.33333333 </v>
    <v>      -0.25000000       0.08333333       0.33333333 </v>
    <v>      -0.16666667       0.08333333       0.33333333 </v>
    <v>      -0.08333333       0.08333333       0.33333333 </v>
    <v>      -0.00000000       0.16666667       0.33333333 </v>
    <v>       0.25000000       0.16666667       0.33333333 </v>
    <v>       0.33333333       0.16666667       0.33333333 </v>
    <v>       0.41666667       0.16666667       0.33333333 </v>
    <v>       0.50000000       0.16666667       0.33333333 </v>
    <v>      -0.41666667       0.16666667       0.33333333 </v>
    <v>      -0.33333333       0.16666667       0.33333333 </v>
    <v>      -0.25000000       0.16666667       0.33333333 </v>
    <v>      -0.16666667       0.16666667       0.33333333 </v>
    <v>      -0.08333333       0.16666667       0.33333333 </v>
    <v>      -0.00000000       0.25000000       0.33333333 </v>
    <v>       0.33333333       0.25000000       0.33333333 </v>
    <v>       0.41666667       0.25000000       0.33333333 </v>
    <v>       0.50000000       0.25000000       0.33333333 </v>
    <v>      -0.41666667       0.25000000       0.33333333 </v>
    <v>      -0.33333333       0.25000000       0.33333333 </v>
    <v>      -0.25000000       0.25000000       0.33333333 </v>
    <v>      -0.16666667       0.25000000       0.33333333 </v>
    <v>      -0.08333333       0.25000000       0.33333333 </v>
    <v>      -0.00000000       0.33333333       0.33333333 </v>
    <v>       0.41666667       0.33333333       0.33333333 </v>
    <v>       0.50000000       0.33333333       0.33333333 </v>
    <v>      -0.41666667       0.33333333       0.33333333 </v>
    <v>      -0.33333333       0.33333333       0.33333333 </v>
    <v>      -0.25000000       0.33333333       0.33333333 </v>
    <v>      -0.16666667       0.33333333       0.33333333 </v>
    <v>      -0.08333333       0.33333333       0.33333333 </v>
    <v>      -0.00000000       0.41666667       0.33333333 </v>
    <v>       0.50000000       0.41666667       0.33333333 </v>
    <v>      -0.41666667       0.41666667       0.33333333 </v>
    <v>      -0.33333333       0.41666667       0.33333333 </v>
    <v>      -0.25000000       0.41666667       0.33333333 </v>
    <v>      -0.16666667       0.41666667       0.33333333 </v>
    <v>      -0.08333333       0.41666667       0.33333333 </v>
    <v>      -0.00000000       0.50000000       0.33333333 </v>
    <v>      -0.41666667       0.50000000       0.33333333 </v>
    <v>      -0.33333333       0.50000000       0.33333333 </v>
    <v>      -0.25000000       0.50000000       0.33333333 </v>
    <v>      -0.16666667       0.50000000       0.33333333 </v>
    <v>      -0.08333333       0.50000000       0.33333333 </v>
    <v>       0.00000000      -0.41666667       0.33333333 </v>
    <v>      -0.33333333      -0.41666667       0.33333333 </v>
    <v>      -0.25000000      -0.41666667       0.33333333 </v>
    <v>      -0.16666667      -0.41666667       0.33333333 </v>
    <v>      -0.08333333      -0.41666667       0.33333333 </v>
    <v>       0.00000000      -0.33333333       0.33333333 </v>
    <v>      -0.25000000      -0.33333333       0.33333333 </v>
    <v>      -0.16666667      -0.33333333       0.33333333 </v>
    <v>      -0.08333333      -0.33333333       0.33333333 </v>
    <v>      -0.00000000      -0.25000000       0.33333333 </v>
    <v>      -0.16666667      -0.25000000       0.33333333 </v>
    <v>      -0.08333333      -0.25000000       0.33333333 </v>
    <v>      -0.00000000      -0.16666667       0.33333333 </v>
    <v>      -0.08333333      -0.16666667       0.33333333 </v>
    <v>       0.00000000      -0.08333333       0.33333333 </v>
   </varray>
   <varray name="weights" >
    <v>       0.00231481 </v>
    <v>       0.00925926 </v>
    <v>       0.00925926 </v>
    <v>       0.00925926 </v>
    <v>       0.00925926 </v>
    <v>       0.00925926 </v>
    <v>       0.00462963 </v>
    <v>       0.00462963 </v>
    <v>       0.00462963 </v>
    <v>       0.00925926 </v>
    <v>       0.00925926 </v>
    <v>       0.00925926 </v>
    <v>       0.00925926 </v>
    <v>       0.00925926 </v>
    <v>       0.00925926 </v>
    <v>       0.00925926 </v>
    <v>       0.00925926 </v>
    <v>       0.00925926 </v>
    <v>       0.00462963 </v>
    <v>       0.00462963 </v>
    <v>       0.00925926 </v>
    <v>       0.00925926 </v>
    <v>       0.00925926 </v>
    <v>       0.00925926 </v>
    <v>       0.00925926 </v>
    <v>       0.00925926 </v>
    <v>       0.00925926 </v>
    <v>       0.00462963 </v>
    <v>       0.00462963 </v>
    <v>       0.00925926 </v>
    <v>       0.00925926 </v>
    <v>       0.00925926 </v>
    <v>       0.00925926 </v>
    <v>       0.00925926 </v>
    <v>       0.00462963 </v>
    <v>       0.00462963 </v>
    <v>       0.00925926 </v>
    <v>       0.00925926 </v>
    <v>       0.00925926 </v>
    <v>       0.00462963 </v>
    <v>       0.00462963 </v>
    <v>       0.00925926 </v>
    <v>       0.00231481 </v>
    <v>       0.00462963 </v>
    <v>       0.00925926 </v>
    <v>       0.00925926 </v>
    <v>       0.00925926 </v>
    <v>       0.00925926 </v>
    <v>       0.00925926 </v>
    <v>       0.00925926 </v>
    <v>       0.00925926 </v>
    <v>       0.00925926 </v>
    <v>       0.00925926 </v>
    <v>       0.00925926 </v>
    <v>       0.00925926 </v>
    <v>       0.00462963 </v>
    <v>       0.00925926 </v>
    <v>       0.00925926 </v>
    <v>       0.00925926 </v>
    <v>       0.00925926 </v>
    <v>       0.00925926 </v>
    <v>       0.00925926 </v>
    <v>       0.00925926 </v>
    <v>       0.00925926 </v>
    <v>       0.00925926 </v>
    <v>       0.00925926 </v>
    <v>       0.00462963 </v>
    <v>       0.00925926 </v>
    <v>       0.00925926 </v>
    <v>       0.00925926 </v>
    <v>       0.00925926 </v>
    <v>       0.00925926 </v>
    <v>       0.00925926 </v>
    <v>       0.00925926 </v>
    <v>       0.00925926 </v>
    <v>       0.00925926 </v>
    <v>       0.00462963 </v>
    <v>       0.00925926 </v>
    <v>       0.00925926 </v>
    <v>       0.00925926 </v>
    <v>       0.00925926 </v>
    <v>       0.00925926 </v>
    <v>       0.00925926 </v>
    <v>       0.00925926 </v>
    <v>       0.00925926 </v>
    <v>       0.00462963 </v>
    <v>       0.00925926 </v>
    <v>       0.00925926 </v>
    <v>       0.00925926 </v>
    <v>       0.00925926 </v>
    <v>       0.00925926 </v>
    <v>       0.00925926 </v>
    <v>       0.00925926 </v>
    <v>       0.00462963 </v>
    <v>       0.00925926 </v>
    <v>       0.00925926 </v>
    <v>       0.00925926 </v>
    <v>       0.00925926 </v>
    <v>       0.00925926 </v>
    <v>       0.00925926 </v>
    <v>       0.00462963 </v>
    <v>       0.00925926 </v>
    <v>       0.00925926 </v>
    <v>       0.00925926 </v>
    <v>       0.00925926 </v>
    <v>       0.00925926 </v>
    <v>       0.00462963 </v>
    <v>       0.00925926 </v>
    <v>       0.00925926 </v>
    <v>       0.00925926 </v>
    <v>       0.00925926 </v>
    <v>       0.00462963 </v>
    <v>       0.00925926 </v>
    <v>       0.00925926 </v>
    <v>       0.00925926 </v>
    <v>       0.00462963 </v>
    <v>       0.00925926 </v>
    <v>       0.00925926 </v>
    <v>       0.00462963 </v>
    <v>       0.00925926 </v>
    <v>       0.00462963 </v>
   </varray>
  </kpoints>
  <scstep>
   <time name="total">    0.74    0.75</time>
   <energy>
    <i name="e_fr_energy">   -315.89529719 </i>
    <i name="e_wo_entrp">   -315.89529719 </i>
    <i name="e_0_energy">   -315.89529719 </i>
   </energy>
  </scstep>
  <scstep>
   <time name="total">    0.77    0.78</time>
   <energy>
    <i name="e_fr_energy">   -306.34561733 </i>
    <i name="e_wo_entrp">   -306.34561733 </i>
    <i name="e_0_energy">   -306.34561733 </i>
   </energy>
  </scstep>
  <scstep>
   <time name="total">    0.77    0.77</time>
   <energy>
    <i name="e_fr_energy">   -304.93437634 </i>
    <i name="e_wo_entrp">   -304.93437634 </i>
    <i name="e_0_energy">   -304.93437634 </i>
   </energy>
  </scstep>
  <scstep>
   <time name="total">    0.76    0.76</time>
   <energy>
    <i name="e_fr_energy">   -307.61502164 </i>
    <i name="e_wo_entrp">   -307.61502164 </i>
    <i name="e_0_energy">   -307.61502164 </i>
   </energy>
  </scstep>
  <scstep>
   <time name="total">    0.78    0.78</time>
   <energy>
    <i name="e_fr_energy">   -308.19654950 </i>
    <i name="e_wo_entrp">   -308.19654950 </i>
    <i name="e_0_energy">   -308.19654950 </i>
   </energy>
  </scstep>
  <scstep>
   <time name="total">    0.78    0.78</time>
   <energy>
    <i name="e_fr_energy">   -308.33060353 </i>
    <i name="e_wo_entrp">   -308.33060353 </i>
    <i name="e_0_energy">   -308.33060353 </i>
   </energy>
  </scstep>
  <scstep>
   <time name="total">    0.78    0.78</time>
   <energy>
    <i name="e_fr_energy">   -308.36500213 </i>
    <i name="e_wo_entrp">   -308.36500213 </i>
    <i name="e_0_energy">   -308.36500213 </i>
   </energy>
  </scstep>
  <scstep>
   <time name="total">    0.77    0.78</time>
   <energy>
    <i name="e_fr_energy">   -308.38189634 </i>
    <i name="e_wo_entrp">   -308.38189634 </i>
    <i name="e_0_energy">   -308.38189634 </i>
   </energy>
  </scstep>
  <scstep>
   <time name="total">    0.77    0.78</time>
   <energy>
    <i name="e_fr_energy">   -308.38781436 </i>
    <i name="e_wo_entrp">   -308.38781436 </i>
    <i name="e_0_energy">   -308.38781436 </i>
   </energy>
  </scstep>
  <scstep>
   <time name="total">    0.78    0.78</time>
   <energy>
    <i name="e_fr_energy">   -308.38832790 </i>
    <i name="e_wo_entrp">   -308.38832790 </i>
    <i name="e_0_energy">   -308.38832790 </i>
   </energy>
  </scstep>
  <scstep>
   <time name="total">    0.78    0.78</time>
   <energy>
    <i name="e_fr_energy">   -308.38857429 </i>
    <i name="e_wo_entrp">   -308.38857429 </i>
    <i name="e_0_energy">   -308.38857429 </i>
   </energy>
  </scstep>
  <scstep>
   <time name="total">    0.78    0.78</time>
   <energy>
    <i name="e_fr_energy">   -308.38865705 </i>
    <i name="e_wo_entrp">   -308.38865705 </i>
    <i name="e_0_energy">   -308.38865705 </i>
   </energy>
  </scstep>
  <scstep>
   <time name="total">    0.78    0.78</time>
   <energy>
    <i name="e_fr_energy">   -308.38865616 </i>
    <i name="e_wo_entrp">   -308.38865616 </i>
    <i name="e_0_energy">   -308.38865616 </i>
   </energy>
  </scstep>
  <scstep>
   <time name="total">    0.73    0.73</time>
   <energy>
    <i name="e_fr_energy">   -308.38865944 </i>
    <i name="e_wo_entrp">   -308.38865944 </i>
    <i name="e_0_energy">   -308.38865944 </i>
   </energy>
  </scstep>
  <scstep>
   <time name="total">    0.63    0.63</time>
   <energy>
    <i name="e_fr_energy">   -308.38865591 </i>
    <i name="e_wo_entrp">   -308.38865591 </i>
    <i name="e_0_energy">   -308.38865591 </i>
   </energy>
  </scstep>
  <scstep>
   <time name="total">    0.62    0.62</time>
   <energy>
    <i name="e_fr_energy">   -308.38865640 </i>
    <i name="e_wo_entrp">   -308.38865640 </i>
    <i name="e_0_energy">   -308.38865640 </i>
   </energy>
  </scstep>
  <kpoints>
   <generation param="Gamma">
    <v type="int" name="divisions">      12       12        3 </v>
    <v name="usershift">      0.00000000       0.00000000       0.00000000 </v>
    <v name="genvec1">      0.08333333      -0.00000000       0.00000000 </v>
    <v name="genvec2">      0.00000000       0.08333333       0.00000000 </v>
    <v name="genvec3">      0.00000000       0.00000000       0.33333333 </v>
    <v name="shift">      0.00000000       0.00000000       0.00000000 </v>
   </generation>
   <varray name="kpointlist" >
    <v>       0.00000000       0.00000000       0.00000000 </v>
    <v>       0.08333333       0.00000000       0.00000000 </v>
    <v>       0.16666667       0.00000000       0.00000000 </v>
    <v>       0.25000000       0.00000000      -0.00000000 </v>
    <v>       0.33333333       0.00000000      -0.00000000 </v>
    <v>       0.41666667       0.00000000      -0.00000000 </v>
    <v>       0.50000000       0.00000000      -0.00000000 </v>
    <v>      -0.00000000       0.08333333       0.00000000 </v>
    <v>       0.16666667       0.08333333       0.00000000 </v>
    <v>       0.25000000       0.08333333      -0.00000000 </v>
    <v>       0.33333333       0.08333333       0.00000000 </v>
    <v>       0.41666667       0.08333333       0.00000000 </v>
    <v>       0.50000000       0.08333333      -0.00000000 </v>
    <v>      -0.41666667       0.08333333       0.00000000 </v>
    <v>      -0.33333333       0.08333333       0.00000000 </v>
    <v>      -0.25000000       0.08333333       0.00000000 </v>
    <v>      -0.16666667       0.08333333      -0.00000000 </v>
    <v>      -0.08333333       0.08333333       0.00000000 </v>
    <v>      -0.00000000       0.16666667       0.00000000 </v>
    <v>       0.33333333       0.16666667      -0.00000000 </v>
    <v>       0.41666667       0.16666667      -0.00000000 </v>
    <v>       0.50000000       0.16666667      -0.00000000 </v>
    <v>      -0.41666667       0.16666667       0.00000000 </v>
    <v>      -0.33333333       0.16666667       0.00000000 </v>
    <v>      -0.25000000       0.16666667       0.00000000 </v>
    <v>      -0.16666667       0.16666667      -0.00000000 </v>
    <v>      -0.08333333       0.16666667       0.00000000 </v>
    <v>      -0.00000000       0.25000000       0.00000000 </v>
    <v>       0.50000000       0.25000000      -0.00000000 </v>
    <v>      -0.41666667       0.25000000       0.00000000 </v>
    <v>      -0.33333333       0.25000000       0.00000000 </v>
    <v>      -0.25000000       0.25000000       0.00000000 </v>
    <v>      -0.16666667       0.25000000       0.00000000 </v>
    <v>      -0.08333333       0.25000000       0.00000000 </v>
    <v>      -0.00000000       0.33333333       0.00000000 </v>
    <v>      -0.33333333       0.33333333       0.00000000 </v>
    <v>      -0.25000000       0.33333333       0.00000000 </v>
    <v>      -0.16666667       0.33333333       0.00000000 </v>
    <v>      -0.08333333       0.33333333       0.00000000 </v>
    <v>      -0.00000000       0.41666667       0.00000000 </v>
    <v>      -0.16666667       0.41666667       0.00000000 </v>
    <v>      -0.08333333       0.41666667       0.00000000 </v>
    <v>      -0.00000000       0.50000000       0.00000000 </v>
    <v>       0.00000000      -0.00000000       0.33333333 </v>
    <v>       0.08333333       0.00000000       0.33333333 </v>
    <v>       0.16666667       0.00000000       0.33333333 </v>
    <v>       0.25000000       0.00000000       0.33333333 </v>
    <v>       0.33333333       0.00000000       0.33333333 </v>
    <v>       0.41666667       0.00000000       0.33333333 </v>
    <v>       0.50000000       0.00000000       0.33333333 </v>
    <v>      -0.41666667       0.00000000       0.33333333 </v>
    <v>      -0.33333333      -0.00000000       0.33333333 </v>
    <v>      -0.25000000      -0.00000000       0.33333333 </v>
    <v>      -0.16666667       0.00000000       0.33333333 </v>
    <v>      -0.08333333      -0.00000000       0.33333333 </v>
    <v>       0.00000000       0.08333333       0.33333333 </v>
    <v>       0.16666667       0.08333333       0.33333333 </v>
    <v>       0.25000000       0.08333333       0.33333333 </v>
    <v>       0.33333333       0.08333333       0.33333333 </v>
    <v>       0.41666667       0.08333333       0.33333333 </v>
    <v>       0.50000000       0.08333333       0.33333333 </v>
    <v>      -0.41666667       0.08333333       0.33333333 </v>
    <v>      -0.33333333       0.08333333       0.33333333 </v>
    <v>      -0.25000000       0.08333333       0.33333333 </v>
    <v>      -0.16666667       0.08333333       0.33333333 </v>
    <v>      -0.08333333       0.08333333       0.33333333 </v>
    <v>      -0.00000000       0.16666667       0.33333333 </v>
    <v>       0.25000000       0.16666667       0.33333333 </v>
    <v>       0.33333333       0.16666667       0.33333333 </v>
    <v>       0.41666667       0.16666667       0.33333333 </v>
    <v>       0.50000000       0.16666667       0.33333333 </v>
    <v>      -0.41666667       0.16666667       0.33333333 </v>
    <v>      -0.33333333       0.16666667       0.33333333 </v>
    <v>      -0.25000000       0.16666667       0.33333333 </v>
    <v>      -0.16666667       0.16666667       0.33333333 </v>
    <v>      -0.08333333       0.16666667       0.33333333 </v>
    <v>      -0.00000000       0.25000000       0.33333333 </v>
    <v>       0.33333333       0.25000000       0.33333333 </v>
    <v>       0.41666667       0.25000000       0.33333333 </v>
    <v>       0.50000000       0.25000000       0.33333333 </v>
    <v>      -0.41666667       0.25000000       0.33333333 </v>
    <v>      -0.33333333       0.25000000       0.33333333 </v>
    <v>      -0.25000000       0.25000000       0.33333333 </v>
    <v>      -0.16666667       0.25000000       0.33333333 </v>
    <v>      -0.08333333       0.25000000       0.33333333 </v>
    <v>      -0.00000000       0.33333333       0.33333333 </v>
    <v>       0.41666667       0.33333333       0.33333333 </v>
    <v>       0.50000000       0.33333333       0.33333333 </v>
    <v>      -0.41666667       0.33333333       0.33333333 </v>
    <v>      -0.33333333       0.33333333       0.33333333 </v>
    <v>      -0.25000000       0.33333333       0.33333333 </v>
    <v>      -0.16666667       0.33333333       0.33333333 </v>
    <v>      -0.08333333       0.33333333       0.33333333 </v>
    <v>      -0.00000000       0.41666667       0.33333333 </v>
    <v>       0.50000000       0.41666667       0.33333333 </v>
    <v>      -0.41666667       0.41666667       0.33333333 </v>
    <v>      -0.33333333       0.41666667       0.33333333 </v>
    <v>      -0.25000000       0.41666667       0.33333333 </v>
    <v>      -0.16666667       0.41666667       0.33333333 </v>
    <v>      -0.08333333       0.41666667       0.33333333 </v>
    <v>      -0.00000000       0.50000000       0.33333333 </v>
    <v>      -0.41666667       0.50000000       0.33333333 </v>
    <v>      -0.33333333       0.50000000       0.33333333 </v>
    <v>      -0.25000000       0.50000000       0.33333333 </v>
    <v>      -0.16666667       0.50000000       0.33333333 </v>
    <v>      -0.08333333       0.50000000       0.33333333 </v>
    <v>       0.00000000      -0.41666667       0.33333333 </v>
    <v>      -0.33333333      -0.41666667       0.33333333 </v>
    <v>      -0.25000000      -0.41666667       0.33333333 </v>
    <v>      -0.16666667      -0.41666667       0.33333333 </v>
    <v>      -0.08333333      -0.41666667       0.33333333 </v>
    <v>       0.00000000      -0.33333333       0.33333333 </v>
    <v>      -0.25000000      -0.33333333       0.33333333 </v>
    <v>      -0.16666667      -0.33333333       0.33333333 </v>
    <v>      -0.08333333      -0.33333333       0.33333333 </v>
    <v>      -0.00000000      -0.25000000       0.33333333 </v>
    <v>      -0.16666667      -0.25000000       0.33333333 </v>
    <v>      -0.08333333      -0.25000000       0.33333333 </v>
    <v>      -0.00000000      -0.16666667       0.33333333 </v>
    <v>      -0.08333333      -0.16666667       0.33333333 </v>
    <v>       0.00000000      -0.08333333       0.33333333 </v>
   </varray>
   <varray name="weights" >
    <v>       0.00231481 </v>
    <v>       0.00925926 </v>
    <v>       0.00925926 </v>
    <v>       0.00925926 </v>
    <v>       0.00925926 </v>
    <v>       0.00925926 </v>
    <v>       0.00462963 </v>
    <v>       0.00462963 </v>
    <v>       0.00462963 </v>
    <v>       0.00925926 </v>
    <v>       0.00925926 </v>
    <v>       0.00925926 </v>
    <v>       0.00925926 </v>
    <v>       0.00925926 </v>
    <v>       0.00925926 </v>
    <v>       0.00925926 </v>
    <v>       0.00925926 </v>
    <v>       0.00925926 </v>
    <v>       0.00462963 </v>
    <v>       0.00462963 </v>
    <v>       0.00925926 </v>
    <v>       0.00925926 </v>
    <v>       0.00925926 </v>
    <v>       0.00925926 </v>
    <v>       0.00925926 </v>
    <v>       0.00925926 </v>
    <v>       0.00925926 </v>
    <v>       0.00462963 </v>
    <v>       0.00462963 </v>
    <v>       0.00925926 </v>
    <v>       0.00925926 </v>
    <v>       0.00925926 </v>
    <v>       0.00925926 </v>
    <v>       0.00925926 </v>
    <v>       0.00462963 </v>
    <v>       0.00462963 </v>
    <v>       0.00925926 </v>
    <v>       0.00925926 </v>
    <v>       0.00925926 </v>
    <v>       0.00462963 </v>
    <v>       0.00462963 </v>
    <v>       0.00925926 </v>
    <v>       0.00231481 </v>
    <v>       0.00462963 </v>
    <v>       0.00925926 </v>
    <v>       0.00925926 </v>
    <v>       0.00925926 </v>
    <v>       0.00925926 </v>
    <v>       0.00925926 </v>
    <v>       0.00925926 </v>
    <v>       0.00925926 </v>
    <v>       0.00925926 </v>
    <v>       0.00925926 </v>
    <v>       0.00925926 </v>
    <v>       0.00925926 </v>
    <v>       0.00462963 </v>
    <v>       0.00925926 </v>
    <v>       0.00925926 </v>
    <v>       0.00925926 </v>
    <v>       0.00925926 </v>
    <v>       0.00925926 </v>
    <v>       0.00925926 </v>
    <v>       0.00925926 </v>
    <v>       0.00925926 </v>
    <v>       0.00925926 </v>
    <v>       0.00925926 </v>
    <v>       0.00462963 </v>
    <v>       0.00925926 </v>
    <v>       0.00925926 </v>
    <v>       0.00925926 </v>
    <v>       0.00925926 </v>
    <v>       0.00925926 </v>
    <v>       0.00925926 </v>
    <v>       0.00925926 </v>
    <v>       0.00925926 </v>
    <v>       0.00925926 </v>
    <v>       0.00462963 </v>
    <v>       0.00925926 </v>
    <v>       0.00925926 </v>
    <v>       0.00925926 </v>
    <v>       0.00925926 </v>
    <v>       0.00925926 </v>
    <v>       0.00925926 </v>
    <v>       0.00925926 </v>
    <v>       0.00925926 </v>
    <v>       0.00462963 </v>
    <v>       0.00925926 </v>
    <v>       0.00925926 </v>
    <v>       0.00925926 </v>
    <v>       0.00925926 </v>
    <v>       0.00925926 </v>
    <v>       0.00925926 </v>
    <v>       0.00925926 </v>
    <v>       0.00462963 </v>
    <v>       0.00925926 </v>
    <v>       0.00925926 </v>
    <v>       0.00925926 </v>
    <v>       0.00925926 </v>
    <v>       0.00925926 </v>
    <v>       0.00925926 </v>
    <v>       0.00462963 </v>
    <v>       0.00925926 </v>
    <v>       0.00925926 </v>
    <v>       0.00925926 </v>
    <v>       0.00925926 </v>
    <v>       0.00925926 </v>
    <v>       0.00462963 </v>
    <v>       0.00925926 </v>
    <v>       0.00925926 </v>
    <v>       0.00925926 </v>
    <v>       0.00925926 </v>
    <v>       0.00462963 </v>
    <v>       0.00925926 </v>
    <v>       0.00925926 </v>
    <v>       0.00925926 </v>
    <v>       0.00462963 </v>
    <v>       0.00925926 </v>
    <v>       0.00925926 </v>
    <v>       0.00462963 </v>
    <v>       0.00925926 </v>
    <v>       0.00462963 </v>
   </varray>
  </kpoints>
  <scstep>
   <time name="total">    0.75    0.75</time>
   <energy>
    <i name="e_fr_energy">   -316.05697179 </i>
    <i name="e_wo_entrp">   -316.05697179 </i>
    <i name="e_0_energy">   -316.05697179 </i>
   </energy>
  </scstep>
  <scstep>
   <time name="total">    0.77    0.77</time>
   <energy>
    <i name="e_fr_energy">   -306.34653819 </i>
    <i name="e_wo_entrp">   -306.34653819 </i>
    <i name="e_0_energy">   -306.34653819 </i>
   </energy>
  </scstep>
  <scstep>
   <time name="total">    0.77    0.77</time>
   <energy>
    <i name="e_fr_energy">   -304.93640277 </i>
    <i name="e_wo_entrp">   -304.93640277 </i>
    <i name="e_0_energy">   -304.93640277 </i>
   </energy>
  </scstep>
  <scstep>
   <time name="total">    0.77    0.77</time>
   <energy>
    <i name="e_fr_energy">   -307.61618754 </i>
    <i name="e_wo_entrp">   -307.61618754 </i>
    <i name="e_0_energy">   -307.61618754 </i>
   </energy>
  </scstep>
  <scstep>
   <time name="total">    0.78    0.78</time>
   <energy>
    <i name="e_fr_energy">   -308.17753790 </i>
    <i name="e_wo_entrp">   -308.17753790 </i>
    <i name="e_0_energy">   -308.17753790 </i>
   </energy>
  </scstep>
  <scstep>
   <time name="total">    0.78    0.78</time>
   <energy>
    <i name="e_fr_energy">   -308.32762276 </i>
    <i name="e_wo_entrp">   -308.32762276 </i>
    <i name="e_0_energy">   -308.32762276 </i>
   </energy>
  </scstep>
  <scstep>
   <time name="total">    0.79    0.79</time>
   <energy>
    <i name="e_fr_energy">   -308.37165958 </i>
    <i name="e_wo_entrp">   -308.37165958 </i>
    <i name="e_0_energy">   -308.37165958 </i>
   </energy>
  </scstep>
  <scstep>
   <time name="total">    0.79    0.79</time>
   <energy>
    <i name="e_fr_energy">   -308.38281854 </i>
    <i name="e_wo_entrp">   -308.38281854 </i>
    <i name="e_0_energy">   -308.38281854 </i>
   </energy>
  </scstep>
  <scstep>
   <time name="total">    0.78    0.79</time>
   <energy>
    <i name="e_fr_energy">   -308.38826369 </i>
    <i name="e_wo_entrp">   -308.38826369 </i>
    <i name="e_0_energy">   -308.38826369 </i>
   </energy>
  </scstep>
  <scstep>
   <time name="total">    0.79    0.79</time>
   <energy>
    <i name="e_fr_energy">   -308.38871123 </i>
    <i name="e_wo_entrp">   -308.38871123 </i>
    <i name="e_0_energy">   -308.38871123 </i>
   </energy>
  </scstep>
  <scstep>
   <time name="total">    0.78    0.78</time>
   <energy>
[...]
       <r>   -4.6882    1.0000 </r>
       <r>   -4.6328    1.0000 </r>
       <r>   -4.5318    1.0000 </r>
       <r>   -3.1344    1.0000 </r>
       <r>   -3.1080    1.0000 </r>
       <r>   -2.1143    1.0000 </r>
       <r>   -1.8954    1.0000 </r>
       <r>    1.0400    1.0000 </r>
       <r>    1.5803    1.0000 </r>
       <r>    1.6560    1.0000 </r>
       <r>    1.7463    1.0000 </r>
       <r>    1.9431    1.0000 </r>
       <r>    2.2267    1.0000 </r>
       <r>    2.5585    1.0000 </r>
       <r>    2.8567    1.0000 </r>
       <r>    3.3326    1.0000 </r>
       <r>    3.7782    1.0000 </r>
       <r>    4.2853    1.0000 </r>
       <r>    4.7674    1.0000 </r>
       <r>    5.0448    1.0000 </r>
       <r>    5.2918    1.0000 </r>
       <r>    5.8399    1.0000 </r>
       <r>    7.2538    0.0000 </r>
       <r>    8.0199    0.0000 </r>
       <r>    8.2259    0.0000 </r>
       <r>    8.3021    0.0000 </r>
       <r>    8.3785    0.0000 </r>
       <r>    9.2696    0.0000 </r>
       <r>    9.9863    0.0000 </r>
       <r>   10.1788    0.0000 </r>
      </set>
      <set comment="kpoint 49">
       <r>   -4.9036    1.0000 </r>
       <r>   -4.8207    1.0000 </r>
       <r>   -4.6934    1.0000 </r>
       <r>   -4.6297    1.0000 </r>
       <r>   -4.5320    1.0000 </r>
       <r>   -3.1321    1.0000 </r>
       <r>   -3.1100    1.0000 </r>
       <r>   -2.1144    1.0000 </r>
       <r>   -1.8960    1.0000 </r>
       <r>    1.1438    1.0000 </r>
       <r>    1.4023    1.0000 </r>
       <r>    1.5459    1.0000 </r>
       <r>    1.8266    1.0000 </r>
       <r>    2.0645    1.0000 </r>
       <r>    2.1658    1.0000 </r>
       <r>    2.7128    1.0000 </r>
       <r>    2.7878    1.0000 </r>
       <r>    3.4080    1.0000 </r>
       <r>    3.7235    1.0000 </r>
       <r>    4.2194    1.0000 </r>
       <r>    4.4447    1.0000 </r>
       <r>    5.2076    1.0000 </r>
       <r>    5.6160    1.0000 </r>
       <r>    5.8301    1.0000 </r>
       <r>    7.3235    0.0000 </r>
       <r>    7.4940    0.0000 </r>
       <r>    7.7567    0.0000 </r>
       <r>    8.7381    0.0000 </r>
       <r>    9.0492    0.0000 </r>
       <r>    9.2102    0.0000 </r>
       <r>    9.8196    0.0000 </r>
       <r>   10.2691    0.0000 </r>
      </set>
      <set comment="kpoint 50">
       <r>   -4.6731    1.0000 </r>
       <r>   -4.6731    1.0000 </r>
       <r>   -4.6250    1.0000 </r>
       <r>   -4.6250    1.0000 </r>
       <r>   -4.5670    1.0000 </r>
       <r>   -3.2550    1.0000 </r>
       <r>   -3.2145    1.0000 </r>
       <r>   -2.0911    1.0000 </r>
       <r>   -2.0911    1.0000 </r>
       <r>    1.2958    1.0000 </r>
       <r>    1.2958    1.0000 </r>
       <r>    1.3755    1.0000 </r>
       <r>    1.9199    1.0000 </r>
       <r>    2.0049    1.0000 </r>
       <r>    2.0049    1.0000 </r>
       <r>    2.6783    1.0000 </r>
       <r>    2.6783    1.0000 </r>
       <r>    2.8537    1.0000 </r>
       <r>    4.1728    1.0000 </r>
       <r>    4.1728    1.0000 </r>
       <r>    4.5531    1.0000 </r>
       <r>    5.3157    1.0000 </r>
       <r>    5.3157    1.0000 </r>
       <r>    5.4313    1.0000 </r>
       <r>    7.7617    0.0000 </r>
       <r>    7.7617    0.0000 </r>
       <r>    7.9616    0.0000 </r>
       <r>    8.6958    0.0000 </r>
       <r>    8.6958    0.0000 </r>
       <r>    8.8289    0.0000 </r>
       <r>   10.4544    0.0000 </r>
       <r>   10.4544    0.0000 </r>
      </set>
     </set>
    </set>
   </array>
  </eigenvalues>
  <separator name="orbital magnetization" >
   <v name="MAGDIPOLOUT">      0.00000000      0.00000000      0.00000000</v>
  </separator>
  <dos>
   <i name="efermi">      6.70188849 </i>
   <total>
    <array>
     <dimension dim="1">gridpoints</dimension>
     <dimension dim="2">spin</dimension>
     <field>energy</field>
     <field>total</field>
     <field>integrated</field>
     <set>
      <set comment="spin 1">
       <r>    -7.7526     0.0000     0.0000 </r>
       <r>    -7.6886     0.0000     0.0000 </r>
       <r>    -7.6246     0.0000     0.0000 </r>
       <r>    -7.5606     0.0000     0.0000 </r>
       <r>    -7.4966     0.0000     0.0000 </r>
       <r>    -7.4326     0.0000     0.0000 </r>
       <r>    -7.3686     0.0000     0.0000 </r>
       <r>    -7.3047     0.0000     0.0000 </r>
       <r>    -7.2407     0.0000     0.0000 </r>
       <r>    -7.1767     0.0000     0.0000 </r>
       <r>    -7.1127     0.0000     0.0000 </r>
       <r>    -7.0487     0.0000     0.0000 </r>
       <r>    -6.9847     0.0001     0.0000 </r>
       <r>    -6.9207     0.0106     0.0007 </r>
       <r>    -6.8567     0.1409     0.0097 </r>
       <r>    -6.7927     0.6001     0.0481 </r>
       <r>    -6.7287     0.7489     0.0960 </r>
       <r>    -6.6648     0.9035     0.1538 </r>
       <r>    -6.6008     1.7365     0.2650 </r>
       <r>    -6.5368     1.1587     0.3391 </r>
       <r>    -6.4728     1.2549     0.4194 </r>
       <r>    -6.4088     1.9718     0.5456 </r>
       <r>    -6.3448     1.8204     0.6621 </r>
       <r>    -6.2808     1.7935     0.7768 </r>
       <r>    -6.2168     2.0043     0.9051 </r>
       <r>    -6.1528     1.1830     0.9808 </r>
       <r>    -6.0888     2.8957     1.1661 </r>
       <r>    -6.0249     2.9896     1.3574 </r>
       <r>    -5.9609     2.1938     1.4977 </r>
       <r>    -5.8969     3.1810     1.7013 </r>
       <r>    -5.8329     2.4389     1.8574 </r>
       <r>    -5.7689     1.7903     1.9719 </r>
       <r>    -5.7049     3.2603     2.1806 </r>
       <r>    -5.6409     3.2286     2.3872 </r>
       <r>    -5.5769     4.4573     2.6724 </r>
       <r>    -5.5129     2.8689     2.8560 </r>
       <r>    -5.4490     3.9784     3.1105 </r>
       <r>    -5.3850     3.7543     3.3508 </r>
       <r>    -5.3210     3.4861     3.5738 </r>
       <r>    -5.2570     5.0539     3.8972 </r>
       <r>    -5.1930     4.9218     4.2122 </r>
       <r>    -5.1290     6.1141     4.6034 </r>
       <r>    -5.0650     6.4348     5.0152 </r>
       <r>    -5.0010     5.6447     5.3764 </r>
       <r>    -4.9370     5.6972     5.7409 </r>
       <r>    -4.8730     9.6748     6.3600 </r>
       <r>    -4.8091     9.7924     6.9866 </r>
       <r>    -4.7451     9.0590     7.5663 </r>
       <r>    -4.6811     9.9263     8.2015 </r>
       <r>    -4.6171     9.9734     8.8397 </r>
       <r>    -4.5531     9.3141     9.4357 </r>
       <r>    -4.4891     6.7909     9.8703 </r>
       <r>    -4.4251     1.9025     9.9920 </r>
       <r>    -4.3611     0.1240     9.9999 </r>
       <r>    -4.2971     0.0010    10.0000 </r>
       <r>    -4.2331     0.0000    10.0000 </r>
       <r>    -4.1692     0.0000    10.0000 </r>
       <r>    -4.1052     0.0000    10.0000 </r>
       <r>    -4.0412     0.0000    10.0000 </r>
       <r>    -3.9772     0.0000    10.0000 </r>
       <r>    -3.9132     0.0000    10.0000 </r>
       <r>    -3.8492     0.0000    10.0000 </r>
       <r>    -3.7852     0.0000    10.0000 </r>
       <r>    -3.7212     0.0000    10.0000 </r>
       <r>    -3.6572     0.0000    10.0000 </r>
       <r>    -3.5933     0.0000    10.0000 </r>
       <r>    -3.5293     0.0000    10.0000 </r>
       <r>    -3.4653     0.0000    10.0000 </r>
       <r>    -3.4013     0.0000    10.0000 </r>
       <r>    -3.3373     0.0041    10.0003 </r>
       <r>    -3.2733     0.1452    10.0096 </r>
       <r>    -3.2093     0.5397    10.0441 </r>
       <r>    -3.1453     1.8651    10.1634 </r>
       <r>    -3.0813     5.0011    10.4835 </r>
       <r>    -3.0173     3.4144    10.7019 </r>
       <r>    -2.9534     2.7735    10.8794 </r>
       <r>    -2.8894     4.4408    11.1636 </r>
       <r>    -2.8254     4.7203    11.4656 </r>
       <r>    -2.7614     2.8639    11.6489 </r>
       <r>    -2.6974     2.1094    11.7839 </r>
       <r>    -2.6334     1.5155    11.8809 </r>
       <r>    -2.5694     4.6078    12.1757 </r>
       <r>    -2.5054     4.4856    12.4627 </r>
       <r>    -2.4414     4.9541    12.7797 </r>
       <r>    -2.3774     3.0497    12.9749 </r>
       <r>    -2.3135     1.4771    13.0694 </r>
       <r>    -2.2495     1.6806    13.1769 </r>
       <r>    -2.1855     3.3482    13.3912 </r>
       <r>    -2.1215     5.9437    13.7715 </r>
       <r>    -2.0575     5.8493    14.1458 </r>
       <r>    -1.9935     2.7875    14.3242 </r>
       <r>    -1.9295     2.5428    14.4869 </r>
       <r>    -1.8655     3.4092    14.7051 </r>
       <r>    -1.8015     4.2112    14.9745 </r>
       <r>    -1.7376     2.4374    15.1305 </r>
       <r>    -1.6736     2.6704    15.3014 </r>
       <r>    -1.6096     3.3982    15.5188 </r>
       <r>    -1.5456     2.7668    15.6959 </r>
       <r>    -1.4816     1.4435    15.7883 </r>
       <r>    -1.4176     1.7563    15.9006 </r>
       <r>    -1.3536     2.5809    16.0658 </r>
       <r>    -1.2896     3.7515    16.3058 </r>
       <r>    -1.2256     2.2734    16.4513 </r>
       <r>    -1.1616     3.2264    16.6578 </r>
       <r>    -1.0977     1.6053    16.7605 </r>
       <r>    -1.0337     1.0831    16.8298 </r>
       <r>    -0.9697     1.0039    16.8940 </r>
       <r>    -0.9057     1.1865    16.9700 </r>
       <r>    -0.8417     1.4777    17.0645 </r>
       <r>    -0.7777     3.1838    17.2682 </r>
       <r>    -0.7137     1.5375    17.3666 </r>
       <r>    -0.6497     0.8415    17.4205 </r>
       <r>    -0.5857     0.4624    17.4501 </r>
       <r>    -0.5218     0.0622    17.4540 </r>
       <r>    -0.4578     0.2916    17.4727 </r>
       <r>    -0.3938     1.0704    17.5412 </r>
       <r>    -0.3298     0.3950    17.5665 </r>
       <r>    -0.2658     0.2665    17.5835 </r>
       <r>    -0.2018     1.4752    17.6779 </r>
       <r>    -0.1378     0.8664    17.7334 </r>
       <r>    -0.0738     0.0427    17.7361 </r>
       <r>    -0.0098     0.0001    17.7361 </r>
       <r>     0.0542     0.0001    17.7361 </r>
       <r>     0.1181     0.0170    17.7372 </r>
       <r>     0.1821     0.3419    17.7591 </r>
       <r>     0.2461     0.7206    17.8052 </r>
       <r>     0.3101     0.3894    17.8301 </r>
       <r>     0.3741     0.5922    17.8680 </r>
       <r>     0.4381     0.4941    17.8996 </r>
       <r>     0.5021     0.0492    17.9028 </r>
       <r>     0.5661     0.0176    17.9039 </r>
       <r>     0.6301     0.3475    17.9261 </r>
       <r>     0.6941     0.9463    17.9867 </r>
       <r>     0.7580     1.4972    18.0825 </r>
       <r>     0.8220     2.4832    18.2414 </r>
       <r>     0.8860     1.1755    18.3166 </r>
       <r>     0.9500     1.7287    18.4272 </r>
       <r>     1.0140     2.3319    18.5764 </r>
       <r>     1.0780     2.3448    18.7265 </r>
       <r>     1.1420     3.0170    18.9195 </r>
       <r>     1.2060     3.0059    19.1119 </r>
       <r>     1.2700     1.5525    19.2112 </r>
       <r>     1.3339     3.1421    19.4123 </r>
       <r>     1.3979     3.9216    19.6632 </r>
       <r>     1.4619     4.8608    19.9743 </r>
       <r>     1.5259     4.1808    20.2418 </r>
       <r>     1.5899     3.6591    20.4759 </r>
       <r>     1.6539     2.2352    20.6190 </r>
       <r>     1.7179     2.7968    20.7979 </r>
       <r>     1.7819     3.7109    21.0354 </r>
       <r>     1.8459     4.0671    21.2956 </r>
       <r>     1.9099     4.4549    21.5807 </r>
       <r>     1.9738     5.2226    21.9149 </r>
       <r>     2.0378     5.0561    22.2384 </r>
       <r>     2.1018     5.0307    22.5604 </r>
       <r>     2.1658     4.6005    22.8547 </r>
       <r>     2.2298     5.5938    23.2127 </r>
       <r>     2.2938     5.0501    23.5358 </r>
       <r>     2.3578     5.7561    23.9042 </r>
       <r>     2.4218     7.3882    24.3769 </r>
       <r>     2.4858     6.5539    24.7963 </r>
       <r>     2.5498     5.8967    25.1736 </r>
       <r>     2.6137     5.3706    25.5173 </r>
       <r>     2.6777     6.7568    25.9497 </r>
       <r>     2.7417     7.2778    26.4154 </r>
       <r>     2.8057     9.1796    27.0028 </r>
       <r>     2.8697     8.6791    27.5581 </r>
       <r>     2.9337     6.3818    27.9665 </r>
       <r>     2.9977     6.7249    28.3968 </r>
       <r>     3.0617     6.4147    28.8073 </r>
       <r>     3.1257     5.8582    29.1822 </r>
       <r>     3.1896     5.7497    29.5501 </r>
       <r>     3.2536     5.1048    29.8767 </r>
       <r>     3.3176     7.3363    30.3462 </r>
       <r>     3.3816     9.2856    30.9404 </r>
       <r>     3.4456     8.2002    31.4651 </r>
       <r>     3.5096     6.6859    31.8929 </r>
       <r>     3.5736     5.6641    32.2554 </r>
       <r>     3.6376     5.2939    32.5941 </r>
       <r>     3.7016     7.1414    33.0511 </r>
       <r>     3.7656     8.7722    33.6124 </r>
       <r>     3.8295     7.6392    34.1013 </r>
       <r>     3.8935     7.1220    34.5570 </r>
       <r>     3.9575     5.5609    34.9128 </r>
       <r>     4.0215     5.9094    35.2910 </r>
       <r>     4.0855     5.1380    35.6198 </r>
       <r>     4.1495     6.3089    36.0235 </r>
       <r>     4.2135     6.6385    36.4483 </r>
       <r>     4.2775     5.8287    36.8212 </r>
       <r>     4.3415     6.3973    37.2306 </r>
       <r>     4.4055     6.7542    37.6628 </r>
       <r>     4.4694     7.1800    38.1222 </r>
       <r>     4.5334     8.6478    38.6756 </r>
       <r>     4.5974     5.9202    39.0544 </r>
       <r>     4.6614     5.1453    39.3837 </r>
       <r>     4.7254     5.6303    39.7440 </r>
       <r>     4.7894     6.4671    40.1578 </r>
       <r>     4.8534     7.1623    40.6161 </r>
       <r>     4.9174     6.2832    41.0182 </r>
       <r>     4.9814     6.2032    41.4151 </r>
       <r>     5.0453     5.1479    41.7445 </r>
       <r>     5.1093     5.5525    42.0998 </r>
       <r>     5.1733     4.8166    42.4080 </r>
       <r>     5.2373     5.9739    42.7903 </r>
       <r>     5.3013     7.1090    43.2452 </r>
       <r>     5.3653     5.4440    43.5936 </r>
       <r>     5.4293     5.0026    43.9137 </r>
       <r>     5.4933     3.8904    44.1626 </r>
       <r>     5.5573     3.8242    44.4073 </r>
       <r>     5.6213     5.5509    44.7625 </r>
       <r>     5.6852     5.6954    45.1270 </r>
       <r>     5.7492     6.8103    45.5628 </r>
       <r>     5.8132     7.9009    46.0683 </r>
       <r>     5.8772     7.2371    46.5314 </r>
       <r>     5.9412     6.2652    46.9324 </r>
       <r>     6.0052     4.6634    47.2308 </r>
       <r>     6.0692     3.8934    47.4799 </r>
       <r>     6.1332     3.0145    47.6728 </r>
       <r>     6.1972     2.2711    47.8181 </r>
       <r>     6.2612     0.8135    47.8702 </r>
       <r>     6.3251     0.5311    47.9042 </r>
       <r>     6.3891     0.9098    47.9624 </r>
       <r>     6.4531     0.3604    47.9854 </r>
       <r>     6.5171     0.0859    47.9909 </r>
       <r>     6.5811     0.0655    47.9951 </r>
       <r>     6.6451     0.0253    47.9967 </r>
       <r>     6.7091     0.0585    48.0005 </r>
       <r>     6.7731     0.1006    48.0069 </r>
       <r>     6.8371     0.2703    48.0242 </r>
       <r>     6.9010     1.3603    48.1113 </r>
       <r>     6.9650     1.7534    48.2235 </r>
       <r>     7.0290     3.2415    48.4309 </r>
       <r>     7.0930     6.1077    48.8217 </r>
       <r>     7.1570     5.6697    49.1845 </r>
       <r>     7.2210     5.9461    49.5650 </r>
       <r>     7.2850     7.0699    50.0174 </r>
       <r>     7.3490     7.8821    50.5218 </r>
       <r>     7.4130     7.5975    51.0080 </r>
       <r>     7.4770     7.1784    51.4673 </r>
       <r>     7.5409     8.0470    51.9822 </r>
       <r>     7.6049     7.8255    52.4830 </r>
       <r>     7.6689     5.6999    52.8477 </r>
       <r>     7.7329     5.3670    53.1911 </r>
       <r>     7.7969     5.9232    53.5702 </r>
       <r>     7.8609     6.2194    53.9681 </r>
       <r>     7.9249     6.6860    54.3960 </r>
       <r>     7.9889     5.7756    54.7656 </r>
       <r>     8.0529     5.4049    55.1114 </r>
       <r>     8.1168     4.8123    55.4194 </r>
       <r>     8.1808     4.9859    55.7384 </r>
       <r>     8.2448     5.9860    56.1214 </r>
       <r>     8.3088     7.2298    56.5841 </r>
       <r>     8.3728     6.7918    57.0187 </r>
       <r>     8.4368     5.6281    57.3788 </r>
       <r>     8.5008     4.3903    57.6598 </r>
       <r>     8.5648     4.7016    57.9606 </r>
       <r>     8.6288     3.5751    58.1894 </r>
       <r>     8.6928     5.0571    58.5130 </r>
       <r>     8.7567     7.1980    58.9736 </r>
       <r>     8.8207     5.3986    59.3190 </r>
       <r>     8.8847     3.8814    59.5674 </r>
       <r>     8.9487     3.5223    59.7928 </r>
       <r>     9.0127     4.8972    60.1062 </r>
       <r>     9.0767     5.9179    60.4848 </r>
       <r>     9.1407     5.0544    60.8083 </r>
       <r>     9.2047     4.3977    61.0897 </r>
       <r>     9.2687     5.0682    61.4140 </r>
       <r>     9.3327     4.7777    61.7197 </r>
       <r>     9.3966     4.8423    62.0296 </r>
       <r>     9.4606     4.4132    62.3120 </r>
       <r>     9.5246     3.5415    62.5386 </r>
       <r>     9.5886     1.9822    62.6654 </r>
       <r>     9.6526     2.8820    62.8498 </r>
       <r>     9.7166     2.4553    63.0070 </r>
       <r>     9.7806     1.6048    63.1097 </r>
       <r>     9.8446     2.0221    63.2390 </r>
       <r>     9.9086     2.5377    63.4014 </r>
       <r>     9.9725     2.3713    63.5532 </r>
       <r>    10.0365     1.9456    63.6777 </r>
       <r>    10.1005     0.5414    63.7123 </r>
       <r>    10.1645     0.3709    63.7360 </r>
       <r>    10.2285     1.0974    63.8063 </r>
       <r>    10.2925     0.9115    63.8646 </r>
       <r>    10.3565     0.2351    63.8796 </r>
       <r>    10.4205     0.2924    63.8984 </r>
       <r>    10.4845     0.9161    63.9570 </r>
       <r>    10.5485     0.3450    63.9791 </r>
       <r>    10.6124     0.2732    63.9965 </r>
       <r>    10.6764     0.0535    64.0000 </r>
       <r>    10.7404     0.0007    64.0000 </r>
       <r>    10.8044     0.0000    64.0000 </r>
       <r>    10.8684     0.0000    64.0000 </r>
       <r>    10.9324     0.0000    64.0000 </r>
       <r>    10.9964     0.0000    64.0000 </r>
       <r>    11.0604     0.0000    64.0000 </r>
       <r>    11.1244     0.0000    64.0000 </r>
       <r>    11.1884     0.0000    64.0000 </r>
       <r>    11.2523     0.0000    64.0000 </r>
       <r>    11.3163     0.0000    64.0000 </r>
       <r>    11.3803     0.0000    64.0000 </r>
       <r>    11.4443     0.0000    64.0000 </r>
      </set>
     </set>
    </array>
   </total>
  </dos>
 </calculation>
 <structure name="finalpos" >
  <crystal>
   <varray name="basis" >
    <v>       4.23389098       0.00000000       0.00000000 </v>
    <v>       2.11694549       3.66665715       0.00000000 </v>
    <v>       0.00000000      -0.00000000      16.82108059 </v>
   </varray>
   <i name="volume">    261.13426753 </i>
   <varray name="rec_basis" >
    <v>       0.23618936      -0.13636399      -0.00000000 </v>
    <v>      -0.00000000       0.27272798       0.00000000 </v>
    <v>      -0.00000000       0.00000000       0.05944921 </v>
   </varray>
  </crystal>
  <varray name="positions" >
   <v>       0.33333333       0.33333333       0.10107162 </v>
   <v>       0.66666667       0.66666667       0.89892838 </v>
   <v>       0.00000000       0.00000000       0.31882486 </v>
   <v>       0.00000000       0.00000000       0.68117514 </v>
   <v>       0.00000000       0.00000000       0.00000000 </v>
   <v>       0.66666667       0.66666667       0.19991905 </v>
   <v>       0.33333333       0.33333333       0.42174369 </v>
   <v>       0.66666667       0.66666667       0.57825631 </v>
   <v>       0.33333333       0.33333333       0.80008095 </v>
  </varray>
 </structure>
</modeling>
